# vtk DataFile Version 3.0
vtk output
ASCII
DATASET POLYDATA
POINTS 4326 float
109.604 83.3509 52.9209 109.787 83.3509 52.6043 109.787 84.0961 52.6043 
109.636 84.1472 52.8646 109.604 84.1224 52.9209 109.581 83.3509 52.9804 
109.6 84.1212 52.9299 109.581 84.1064 52.9804 109.581 82.818 52.9804 
109.581 82.818 53.3299 109.581 83.3509 53.3299 109.581 84.1721 53.1099 
109.581 84.1721 53.3299 109.581 84.1404 53.0381 109.581 84.3665 53.3299 
109.531 84.9933 53.7884 109.524 85.0199 53.7997 109.55 84.9933 53.7696 
109.558 84.9561 53.741 109.564 84.9791 53.7481 109.581 84.9113 53.6783 
109.595 84.9474 53.6836 109.846 86.6357 53.8087 109.846 85.8145 53.8087 
109.872 85.8145 53.7894 109.872 86.6357 53.7894 109.809 85.6235 53.7654 
109.57 84.9933 53.7545 109.732 85.8145 53.9403 109.43 85.8145 54.1717 
109.364 85.48 54.096 109.376 85.3966 54.0555 109.623 84.9933 53.694 
109.732 86.6357 53.9403 109.43 86.6357 54.1717 109.856 86.6834 53.8195 
109.787 87.3808 54.0555 109.787 87.0538 54.0555 109.641 87.4254 54.3079 
109.64 87.4309 54.3102 109.583 87.4156 54.3483 109.588 87.4185 54.3459 
109.634 87.432 54.3154 109.799 86.9742 54.0169 109.635 87.4323 54.3146 
110.267 87.978 52.9948 110.249 87.9419 52.9846 110.135 87.7111 53.2459 
110.135 87.7111 53.3299 110.364 88.1754 53.3299 109.832 87.4568 54.0555 
109.655 87.4568 54.3102 109.653 87.4554 54.3118 109.641 87.4378 54.3146 
110.032 87.4568 53.4827 109.856 87.3576 53.8195 110.112 87.5919 53.3299 
109.984 87.8639 53.8495 109.877 87.6819 54.0555 110.384 89.0992 53.3996 
110.12 89.0992 54.0055 110.12 88.278 54.0055 110.384 88.278 53.3996 
110.231 89.0992 52.8722 110.231 88.0863 52.8722 110.12 89.9204 54.0055 
110.364 89.9204 53.446 110.384 89.8896 53.3996 109.505 82.6362 53.833 
109.435 82.5297 53.9535 109.316 82.3495 54.0555 108.954 81.7985 54.0555 
109.156 82.1057 53.3602 109.177 82.1378 53.3299 109.505 82.6362 53.3299 
109.581 82.818 53.6783 109.558 82.7625 53.741 109.581 83.3509 53.6783 
109.558 83.3509 53.741 109.376 83.3509 54.0555 109.376 82.5297 54.0555 
109.558 84.1721 53.741 109.376 84.1721 54.0555 109.581 84.1721 53.6783 
109.376 84.9933 54.0555 109.581 84.8758 53.6181 109.307 85.7678 54.2914 
109.316 85.8145 54.302 109.292 85.8145 54.3208 109.298 85.8332 54.3232 
109.298 86.6357 54.3232 109.523 87.3976 54.4093 110.112 88.278 54.0555 
109.515 87.4568 54.5049 109.525 87.4804 54.524 109.526 87.481 54.5226 
109.524 87.4834 54.5253 109.846 89.0992 54.5342 109.872 89.0992 54.515 
109.872 88.278 54.515 109.846 88.278 54.5342 110.112 89.0992 54.0555 
109.654 87.4568 54.3126 109.809 88.0865 54.4909 109.649 87.4568 54.33 
109.732 89.0992 54.666 109.732 88.278 54.666 109.43 89.0992 54.8973 
109.43 88.278 54.8973 109.376 87.86 54.7811 109.573 87.4945 54.4921 
109.578 87.4977 54.4895 109.364 87.9435 54.8216 109.64 87.5163 54.4263 
110.112 89.9204 54.0555 109.872 89.8301 54.515 109.846 89.8244 54.5342 
110.032 89.9204 54.2083 109.732 89.8633 54.666 109.563 89.9204 54.7953 
109.43 89.9204 54.8973 109.437 90.048 54.8915 109.43 90.0493 54.8973 
109.781 90.1974 54.7224 109.75 89.9204 54.6876 109.919 89.9204 54.533 
109.989 90.323 54.5598 109.98 90.332 54.57 110.112 90.0555 54.0555 
110.135 90.1747 54.0555 110.465 90.7416 54.0555 110.465 91.5115 54.0555 
110.598 91.3769 53.5982 110.598 90.7416 53.5982 110.364 90.7416 54.1716 
110.263 90.434 54.0555 110.12 91.5628 54.7311 110.12 90.9017 54.7311 
110.165 90.7416 54.6276 110.364 91.5628 54.1716 108.622 81.4626 54.7811 
108.699 81.2292 54.7811 108.746 81.4207 54.5914 108.824 81.6001 54.2801 
108.824 81.6001 54.5145 109.231 82.2188 54.2034 108.799 81.541 54.5496 
108.75 81.4243 54.5873 108.794 81.5299 54.3311 108.807 81.617 54.5592 
108.405 82.026 55.2531 108.449 81.7085 55.0991 109.032 82.5297 54.8176 
109.307 82.5297 54.2914 108.464 82.5297 55.4701 108.372 82.1576 55.3648 
109.032 83.3186 54.8176 108.486 82.7646 55.4447 108.464 82.6971 55.4701 
109.051 83.3509 54.7811 109.307 83.3509 54.2914 109.307 84.1721 54.2914 
109.051 84.1721 54.7811 109.307 84.9933 54.2914 109.051 84.9933 54.7811 
109.051 85.8145 54.7811 109.165 86.103 54.7811 109.165 86.6357 54.7811 
109.376 87.4568 54.7811 109.376 87.2768 54.7811 109.494 87.4568 54.5774 
109.298 89.0992 55.0487 109.298 88.278 55.0487 109.298 89.9204 55.0487 
109.298 90.1831 55.0487 109.709 91.5628 55.3653 109.357 91.5628 55.5383 
109.357 91.3547 55.5383 109.678 91.4941 55.3806 109.709 91.5526 55.3653 
109.724 91.5628 55.3538 109.206 90.7416 55.3648 110.007 91.1141 54.9816 
109.98 91.1882 55.034 110.112 91.5628 54.7811 110.112 90.9723 54.7811 
109.894 91.5628 55.197 109.709 92.384 55.3653 109.872 92.384 55.2406 
109.872 91.5961 55.2406 109.357 92.384 55.5383 109.615 93.2109 55.4112 
109.709 93.1253 55.3653 109.357 93.2052 55.5383 109.401 93.2998 55.5169 
109.422 93.2952 55.5066 109.872 93.0151 55.2406 109.346 93.475 55.3219 
109.287 93.656 55.4585 109.287 93.7081 55.4585 109.551 93.9768 54.8508 
109.551 93.6312 54.8508 109.15 94.4032 55.3011 109.376 94.633 54.7811 
109.531 94.1615 54.7811 109.376 94.633 54.2984 109.398 94.5655 54.3238 
109.486 93.6643 54.626 109.414 93.7854 54.3792 109.398 93.8343 54.3238 
97.7635 71.0781 55.5066 97.3564 71.2158 55.0389 97.2898 71.2383 55.0134 
97.2809 71.2413 55.0169 97.2809 71.2413 55.5066 98.5506 71.2029 55.8521 
97.9148 70.9879 55.6087 97.9148 71.0781 55.5066 98.3701 71.3861 55.5066 
97.9148 70.7443 56.1602 98.5339 70.9537 56.3971 98.6889 71.0625 56.3287 
98.6917 71.2234 55.8752 98.7389 71.0795 56.3095 100.738 72.0793 56.2322 
100.617 71.9567 56.2322 100.435 71.8647 56.3364 100.402 71.8989 56.4136 
100.422 71.919 56.4136 100.366 71.873 56.4078 100.353 71.8542 56.3926 
100.415 71.8542 56.3394 105.848 75.5611 55.5066 105.848 75.5611 54.9913 
105.832 75.5496 54.9869 105.831 75.5496 54.9869 105.813 75.5369 55.0109 
105.813 75.5369 55.5066 105.65 75.3719 55.1976 105.516 75.2354 55.5066 
106.266 75.9727 54.8971 106.254 75.9641 54.8873 106.231 75.9487 54.8895 
106.23 75.9477 54.89 106.23 75.9477 55.5066 106.266 75.9727 55.5066 
106.113 75.8299 54.89 106.355 76.0627 54.948 106.466 76.1749 55.0751 
106.466 76.1749 55.5066 105.199 75.034 55.8125 105.315 75.211 55.9796 
105.372 75.1537 55.655 105.291 75.0903 55.7063 105.686 75.6652 56.2322 
105.617 75.5944 56.2322 105.346 75.2651 56.0769 105.339 75.2474 56.0483 
105.413 75.1726 55.625 105.438 75.818 56.546 105.311 75.5873 56.401 
105.667 75.6854 56.2895 105.496 75.8587 56.5509 105.488 75.8566 56.5532 
107.099 77.6141 54.8959 107.099 77.6141 55.5066 107.063 77.5898 55.5066 
107.063 77.5898 54.8901 107.063 77.5899 54.8901 107.082 77.6026 54.8883 
107.09 77.608 54.8891 106.864 77.3886 54.9223 106.864 77.3886 55.5066 
106.948 77.4738 54.8901 107.019 77.5454 54.8901 105.722 75.6892 56.2322 
105.692 75.7197 56.3186 105.747 75.9236 56.5284 106.072 76.1072 56.3205 
106.103 76.076 56.2322 105.553 75.8908 56.5654 106.276 76.2391 56.2322 
106.14 76.101 56.2322 106.653 77.1743 55.9913 106.514 76.9615 56.2322 
106.171 76.2747 56.4338 106.247 76.6611 56.5212 106.277 76.7211 56.5043 
106.099 76.1429 56.3508 107.187 77.7042 54.947 107.299 77.8173 55.5066 
107.299 77.8173 55.075 107.498 78.4237 54.9987 107.498 78.4237 55.5066 
107.498 79.2449 54.9987 107.498 79.2449 55.5066 107.709 79.065 56.2322 
107.738 79.2449 56.334 107.933 80.0788 55.5066 107.898 80.0546 55.5066 
107.898 80.0546 54.896 107.907 80.0607 54.8891 107.926 80.0736 54.8872 
107.933 80.0788 54.8902 108.015 79.9957 55.9764 107.991 79.9596 56.0446 
107.697 79.8514 55.5066 107.902 79.7821 56.2902 107.942 79.8436 56.2322 
107.697 79.8514 55.0751 107.809 79.9645 54.947 107.807 79.3857 56.4137 
107.869 79.5476 56.4418 108.343 80.4942 55.5066 108.343 80.4942 54.9935 
108.073 80.2202 54.8901 108.542 80.7973 55.5066 108.63 80.9323 55.3538 
108.672 80.9957 55.1384 108.672 80.9957 54.9404 108.534 80.7853 54.9204 
108.708 81.0802 54.9199 108.331 81.7085 55.5066 108.542 81.0674 55.5066 
108.331 82.2412 55.5066 108.445 82.6649 55.5066 108.418 82.5297 55.5576 
108.331 82.3824 55.6132 108.468 82.7828 55.5066 109.043 84.1721 54.8297 
109.043 83.3509 54.8297 108.748 83.3509 55.5066 108.748 84.1721 55.5066 
109.043 84.9933 54.8297 108.748 84.9933 55.5066 109.043 85.8145 54.8297 
108.748 85.8145 55.5066 109.078 86.6357 55.5066 109.028 86.3826 55.5066 
109.165 86.2434 55.0346 109.165 86.6357 55.2565 109.165 86.1865 54.9702 
109.209 86.7682 55.3566 109.165 87.4568 55.5066 109.165 86.783 55.5066 
109.165 88.278 55.5066 109.165 89.0992 55.5066 109.165 89.9204 55.5066 
109.165 90.7416 55.5066 109.266 91.5628 55.6954 109.266 91.2159 55.6954 
108.9 91.5628 56.1162 108.9 91.2803 56.1162 109.165 91.0109 55.8114 
108.596 91.5628 56.3482 108.623 91.4672 56.3278 108.596 91.5302 56.3482 
109.266 92.384 55.6954 108.9 92.384 56.1162 108.596 92.384 56.3482 
108.9 93.2052 56.1162 108.596 93.2052 56.3482 109.266 93.2052 55.6954 
109.14 93.6158 56.0263 108.98 93.6158 56.2092 108.921 93.9187 56.1406 
108.677 93.6158 56.4411 108.596 94.0264 56.3482 108.853 94.0264 56.1517 
109.304 93.3979 55.739 109.171 93.5907 55.979 109.4 93.3119 55.5066 
109.278 93.6815 55.5066 109.271 93.6919 55.5213 108.931 94.8476 55.0494 
108.798 94.8476 55.5066 109.114 94.3668 55.5066 109.278 93.6996 55.5066 
97.9148 70.7008 56.4059 97.9324 70.6973 56.4663 98.3173 70.8437 56.5215 
83.9478 70.4202 56.2322 83.7485 70.6224 56.2322 83.7485 70.8502 56.49 
84.1638 70.6395 56.7286 88.7484 70.3469 57.0597 89.5433 70.3469 57.0597 
89.5816 70.315 57.0357 89.5816 70.2118 56.9578 89.3155 70.0768 56.8559 
88.7867 70.0768 56.8559 88.7484 70.1086 56.8799 89.0461 69.9401 56.7012 
89.0411 69.9391 56.7001 88.9224 69.9391 56.7001 100.957 72.1663 56.2322 
100.764 72.1011 56.2322 100.775 72.1047 56.2034 100.922 72.1544 55.9785 
100.957 72.1663 55.9517 101.249 72.3442 55.6835 101.472 72.4796 55.8028 
101.472 72.4796 56.2322 97.9148 70.7602 56.7 97.9148 70.8979 56.8559 
98.0408 70.9235 56.827 98.0483 70.922 56.8219 98.1402 70.8288 56.6741 
97.9148 70.7008 56.4985 97.6225 70.7602 56.7 97.6171 70.7613 56.7012 
[...]
CELL_DATA 3013
FIELD FieldData 3
Radius 1 3013 double
2.89062 3.11344 3.333 3.333 3.333 3.04133 3.25552 3.32535 2.74117 
2.86153 2.86204 3.19599 3.21356 2.88164 2.7417 2.76215 2.86151 2.89067 
2.86201 2.88162 3.04063 1.85829 2.82174 2.5264 3.19543 2.24365 2.57167 
1.81807 1.30158 1.99493 1.81807 2.99123 3.1655 3.333 3.1125 2.89062 
3.005 2.89062 3.1125 3.333 2.89062 3.1125 3.333 2.89062 2.8823 
2.86204 2.76284 2.88227 2.26823 3.26545 3.04133 2.74109 2.11436 2.86722 
2.86146 2.35021 2.48955 3.07798 2.76209 2.7417 2.86204 2.88158 3.26481 
3.30959 2.72963 2.11436 2.74109 2.35021 2.76209 2.7417 2.7417 2.49687 
2.54345 2.75375 2.24365 2.79604 2.5264 1.30159 1.84973 1.81807 1.99493 
2.35098 3.00501 2.99123 3.16642 2.75735 2.57161 2.48951 2.35703 2.20935 
2.35017 2.60314 2.7296 2.60314 2.35017 2.60314 2.35017 2.35017 2.60314 
2.48951 2.60314 2.89062 2.72957 2.89062 3.07791 2.76284 2.8823 2.76284 
2.76284 2.83047 2.74109 2.35098 2.35017 2.11436 2.49687 2.35703 2.74109 
2.83047 2.75375 2.83047 2.74109 1.81803 1.50248 1.31571 1.30159 1.30038 
1.84286 1.97949 2.21695 2.75349 2.80763 2.97459 2.92538 2.97403 2.92467 
2.92467 3.01333 3.01402 3.06181 3.2428 3.26555 2.97451 2.63142 2.92531 
3.26492 3.01334 3.30971 3.06182 3.39141 3.01334 2.72963 3.00506 3.26492 
3.06127 3.30921 2.9246 2.63139 2.5 2.60317 2.97459 3.06182 3.01334 
2.92467 2.63142 2.72963 2.92538 3.01402 2.99123 3.16642 2.72963 2.89067 
2.60317 2.35017 2.48951 2.24365 2.11436 2.26823 1.9941 1.81716 2.11436 
1.81716 2.11436 1.81716 2.24365 2.26823 1.9941 2.5 2.63139 2.60317 
2.52636 2.60317 2.60317 2.60317 2.60317 2.89067 2.76215 2.74117 2.72963 
2.76215 2.89067 2.74117 2.74117 2.76215 2.89067 2.88164 2.86153 2.86153 
2.88164 2.72963 3.00505 2.63142 1.53897 1.75472 2.11533 2.24518 1.37668 
2.72689 2.73959 2.60094 2.66921 2.4036 2.86353 2.70004 2.7396 2.56823 
2.72689 2.79612 2.85137 2.75418 2.74779 2.79608 2.4636 2.85138 2.7396 
2.86356 2.72689 2.8514 2.85966 3.06155 3.1958 3.0529 3.01369 3.21388 
3.02108 2.7536 2.85157 3.02111 2.86373 2.45007 2.51073 2.70026 2.80772 
2.51074 2.4036 2.99123 2.85925 2.56823 2.51074 2.80772 2.45008 2.75361 
2.51074 2.4494 2.753 3.16642 2.45008 2.75361 2.80772 2.51074 3.49619 
2.7536 2.51074 2.86722 2.82174 3.20639 2.97451 2.92531 2.99123 3.30921 
3.40483 3.41313 3.21992 3.66651 3.49936 3.59134 3.64641 3.45391 2.9246 
3.2485 3.48313 3.68601 3.58777 3.07798 3.32467 3.59134 2.63139 3.01396 
3.26549 3.58797 3.01326 2.7296 3.00503 3.26485 3.06174 3.30964 3.41107 
3.07793 3.32463 3.2485 2.99123 3.1655 3.2476 2.60317 2.89067 2.63142 
3.32467 3.07798 2.60317 2.5 2.89067 2.41996 2.12308 1.8574 2.24365 
2.5264 1.666 1.81716 1.9941 2.35105 2.20297 1.666 1.666 1.8574 
2.12308 2.41991 2.5 2.5 2.5 2.5 2.48955 2.57166 2.3571 
2.60317 2.5 2.48955 2.3571 2.35021 2.20942 2.76215 2.57166 2.82174 
2.76215 2.76215 2.88164 2.88164 3.00505 2.76215 1.28411 1.64376 1.79554 
1.64376 1.28411 1.79554 1.28411 1.64376 1.79554 1.79554 1.5308 1.84292 
2.01387 2.33331 2.7396 2.7396 2.75336 2.83047 2.94719 2.34563 1.79554 
2.82248 2.21695 2.5484 2.34475 1.97949 2.80768 2.94292 2.85925 2.51069 
2.85925 2.85925 2.85925 2.85925 2.85925 2.70408 2.94292 2.34475 2.46856 
2.5484 2.49727 2.57248 2.82248 2.7396 2.74783 2.75337 2.47119 2.75418 
2.35098 2.54842 2.75343 2.66933 1.37668 1.37668 2.34562 2.75337 2.86353 
2.74772 2.80768 2.48219 2.796 2.53553 2.72681 2.85132 3.21368 2.7396 
2.86356 2.66933 2.67731 2.72681 3.26504 2.86349 2.85132 2.72681 2.73953 
3.0529 3.27228 3.30946 3.26524 3.02101 3.24255 3.08759 2.85978 2.86373 
3.08769 3.26556 2.66933 3.06181 2.9784 3.26556 3.28745 3.57939 3.45391 
3.24667 3.76837 3.21714 2.96925 3.39877 3.07337 3.30491 3.20691 2.85978 
2.86723 3.59108 3.45391 3.80692 3.30971 3.76837 3.25488 3.26492 3.01334 
3.06181 3.38622 3.278 3.34697 2.86795 3.19599 2.99198 2.85978 3.25488 
3.2845 3.19547 3.2135 3.01334 3.06127 3.06538 3.278 3.44576 3.70883 
3.12915 3.6855 3.43725 3.66598 3.70119 3.49588 2.83047 2.94719 3.27247 
3.27749 2.94283 2.70398 3.43725 3.12915 3.78556 3.52008 3.44624 3.27247 
2.70135 3.05294 2.94719 3.50982 2.82243 2.94279 3.27796 3.21989 3.53181 
3.41306 3.67277 3.43744 3.40536 3.58797 3.39159 3.7268 3.59132 3.27241 
3.05274 3.56703 3.43267 3.85088 3.64003 3.89714 3.41502 3.91761 3.83058 
3.50852 3.50852 3.85093 3.798 3.53178 3.64008 3.58404 3.72683 3.2845 
3.31482 3.1125 3.32535 3.31482 2.63142 2.89067 3.2476 2.57166 3.25488 
3.32529 2.72963 3.07798 2.57247 2.21017 2.5 2.3511 2.3578 2.35105 
2.21017 2.20297 2.21017 1.8574 2.27724 1.95884 2.03275 1.84973 1.65744 
1.666 1.86393 1.67328 1.666 1.95884 1.81715 2.20289 1.84972 1.86393 
1.8574 2.35098 1.99409 2.24365 2.74109 2.12308 2.54345 2.41991 2.74109 
2.52636 2.796 2.5 2.60317 2.76209 2.5 2.60317 2.83047 2.86146 
2.88158 2.44939 2.83047 2.94719 2.60317 2.5 2.5264 2.753 2.82174 
2.63142 2.48955 2.5264 2.48955 2.35021 2.60317 2.60317 2.89067 3.07798 
3.27246 2.60317 3.00505 2.89067 2.94719 3.21901 3.24759 3.27749 3.06483 
3.41107 3.2845 3.41503 2.94719 2.83047 2.70135 2.94719 2.75354 2.5264 
2.82174 2.45 2.94307 2.70429 2.57248 2.82243 2.57334 2.83047 2.57334 
2.86146 2.88158 2.57334 2.0848 2.0848 2.0848 2.0848 2.09486 1.8417 
2.08481 2.24518 1.73281 2.51074 2.53555 2.79604 2.21697 2.74777 2.48221 
2.21694 1.97948 2.53553 2.34562 2.94295 2.79604 2.85911 2.56813 2.80767 
2.51073 2.70411 2.56813 2.85911 2.51073 2.80767 2.75331 1.97948 2.21696 
2.34469 2.54836 2.51069 2.21695 2.796 2.74772 2.74152 2.86744 2.86187 
1.5308 1.30034 1.53891 2.33337 2.34084 2.34563 2.57248 2.34469 2.32645 
2.47119 2.32367 2.72681 2.82248 2.47119 2.70408 2.70129 2.46856 3.05288 
2.85129 3.28745 3.07337 2.94292 2.94715 3.01624 3.27243 3.19579 3.28745 
3.07337 3.26556 3.33479 3.12923 3.26556 3.28745 3.07337 3.26556 3.28745 
3.12923 3.07337 3.07337 3.28745 3.01624 3.26556 2.70131 3.02101 3.24274 
2.94719 2.57346 3.08759 3.30485 3.21714 2.99352 2.72681 2.8513 2.70004 
3.06159 2.86347 2.70408 2.8513 2.85133 2.86349 2.79604 2.49734 2.72681 
2.73953 2.75417 2.54345 2.47119 2.35098 2.32645 2.35746 2.35098 2.46856 
0.821198 1.16994 1.84966 1.84291 2.01386 2.33336 3.27247 3.39145 3.37023 
3.2778 3.3916 3.28745 3.27785 2.94292 3.28745 2.70408 2.82248 2.57248 
2.82248 2.34562 2.19261 2.34562 2.27717 2.34078 2.47119 2.34562 2.34468 
2.33332 2.27717 2.34472 2.35098 2.54345 2.85129 2.86346 3.02099 3.24269 
3.26556 2.79604 2.72681 2.73953 2.82248 3.12923 3.12926 3.01624 2.94295 
2.82248 2.73953 2.72681 3.19558 2.85132 2.86349 2.8513 3.27243 3.02099 
3.33479 3.28745 3.26556 3.37037 3.4375 3.72823 3.66644 3.28745 3.18452 
3.39159 3.33479 3.588 3.48973 3.6279 3.72253 3.26556 3.37023 3.26556 
3.80692 3.75245 3.80692 3.83537 3.8569 3.71968 3.2135 3.32529 3.31482 
3.44624 3.6279 3.49619 3.59134 3.3856 3.34697 3.2845 3.80693 3.83537 
3.92479 3.897 3.58777 3.48973 3.38622 3.278 3.32529 3.06538 3.04064 
3.25488 2.7417 2.86204 3.19599 2.88158 3.2135 2.74109 2.86146 3.19548 
2.49754 2.54345 2.79604 2.75435 2.47109 2.35098 2.34546 2.85115 2.94279 
2.72675 3.44622 3.27796 3.19594 3.12913 2.70133 2.94716 2.53555 2.796 
2.48219 2.7477 3.66638 3.37007 3.95377 3.86755 3.53178 3.97018 3.91761 
3.89714 3.72253 3.92493 3.4962 3.59135 3.91762 3.76838 3.95304 3.72679 
3.75239 3.57928 3.56244 3.81588 3.28378 3.04133 3.58801 3.00501 2.76209 
2.89062 2.7417 2.72963 2.86146 2.74109 2.35021 2.76209 2.7417 2.35021 
2.7417 2.24365 2.49687 2.5264 2.75375 2.79604 2.54345 1.65744 1.84973 
2.20289 1.99493 2.35098 1.81807 2.20289 2.03275 2.21011 1.84972 2.21011 
2.20289 1.99493 2.49754 2.35098 2.35774 2.35774 2.35098 2.54345 2.7417 
2.76284 2.57242 2.7417 2.76209 2.75431 2.76284 2.7417 2.796 2.82238 
2.7417 2.88158 2.67731 2.86723 2.7417 2.86204 2.63142 2.5 3.07798 
2.72963 3.30485 2.60317 2.5 2.63142 3.24274 2.76284 2.7417 2.8823 
3.21415 2.86204 3.20634 3.19548 3.06484 3.04064 3.1125 2.86146 3.19547 
3.06483 2.86204 3.04064 2.88158 3.30485 3.2135 3.24274 3.04133 3.20686 
2.94312 3.196 2.94719 2.86204 3.01975 2.88158 2.86146 2.79604 2.83047 
2.53543 2.47142 2.32645 2.86789 2.7417 2.67802 2.76209 2.74109 2.03412 
2.35098 2.54345 2.25381 2.33064 2.03782 2.34546 2.20289 2.35094 2.54343 
2.7537 2.49686 2.796 2.7417 2.33064 2.70136 2.7417 2.47109 2.57351 
2.70135 2.34112 2.33064 2.33336 2.33315 2.3404 2.74109 2.75337 2.86204 
2.44987 2.70136 2.7417 2.57351 2.51082 2.5264 2.76209 2.75362 2.94299 
2.7043 2.82235 2.70111 2.57335 2.83047 1.37638 0.821999 0.821999 2.24518 
2.24518 2.09484 2.4036 2.60071 2.4636 2.34563 2.48219 2.32646 2.34469 
2.70131 2.74777 2.85133 3.07325 3.28745 2.47123 3.01624 3.28745 2.94719 
3.26556 2.96921 3.07325 2.85951 2.86187 3.27247 3.01624 2.46852 2.8513 
2.74777 2.75411 3.0529 2.75331 1.8417 1.6424 1.30034 2.47119 2.33075 
2.32645 2.86347 2.73953 2.35098 2.03427 2.54836 1.86115 2.03794 2.34469 
1.85979 2.19262 2.25394 2.53555 2.34566 2.03799 2.79604 2.54345 2.57248 
2.82248 2.57248 2.82248 2.86347 2.54345 2.49728 2.75411 2.79604 2.80767 
2.75331 2.8513 2.86347 2.47119 2.80762 2.35093 2.35753 2.73953 2.32645 
2.47122 2.35098 1.16994 0.821198 3.19579 3.27243 3.37023 3.27247 3.39145 
3.39871 3.19584 2.8513 3.05288 2.47119 2.72681 2.32645 2.03427 2.34562 
2.19261 1.85979 2.03794 2.34562 2.79604 2.53553 2.48219 2.74776 2.75331 
2.34469 2.34562 2.48219 2.35746 2.49727 2.34468 2.19161 2.34562 2.19261 
2.33332 2.35098 2.32645 2.34078 2.47119 2.32361 2.34469 2.46852 2.86347 
3.08757 3.30482 3.28745 3.24274 3.30485 3.3702 3.39145 3.37022 3.24269 
3.19584 3.24273 3.2067 2.8513 2.79604 2.86346 3.02099 2.73953 2.34562 
2.53554 2.72681 2.19261 2.72681 2.79604 2.72681 2.53553 2.34562 2.34469 
2.73953 2.54834 2.82191 2.75337 2.79604 2.74777 2.53555 2.48221 2.75411 
3.19579 2.86347 3.2778 3.39142 3.39145 3.28745 3.12926 3.37023 3.26556 
2.94295 2.70411 2.57248 2.94278 2.82248 2.70393 3.28745 3.3913 3.2779 
3.49926 3.39871 2.7012 2.94719 3.0528 3.27247 2.57335 3.43725 3.12915 
3.01624 3.33479 3.41502 3.38561 2.57248 2.82248 2.82248 2.94284 2.57248 
2.70399 3.32529 3.04064 3.25488 3.196 2.86204 2.76209 2.88158 3.21415 
2.8823 2.86204 3.196 2.70136 2.7417 2.49754 2.57161 2.82169 2.75435 
2.79604 2.54345 2.35098 2.35774 2.35703 2.57161 2.74109 2.35098 2.54345 
2.796 2.47106 2.86143 2.48202 2.34451 2.34546 2.7535 2.75431 2.796 
2.85145 2.74771 2.79604 2.57351 2.86331 3.20627 2.85121 2.70399 2.57248 
3.12915 3.37013 3.44625 3.66644 3.34698 3.01948 3.39128 2.94719 3.24274 
3.30478 2.83047 3.02105 3.08755 2.70136 2.57351 2.70136 3.278 2.94284 
2.82248 3.4375 2.76284 2.86204 3.12942 3.27247 2.88158 2.86146 2.89062 
2.94719 3.0528 2.83047 2.7417 2.76284 2.76209 2.74109 2.7417 2.76284 
2.76209 2.74109 2.74109 2.35098 2.35704 2.20935 2.20289 2.33065 2.47109 
2.7012 2.57335 2.74109 2.20935 2.33065 2.20289 2.79604 2.54345 2.49754 
2.75435 2.35098 2.35774 2.49687 2.35098 2.35703 2.7537 2.49687 2.75289 
2.57161 2.35774 2.21011 2.49034 2.35105 2.20289 2.35098 2.35105 2.35105 
2.63142 2.35105 2.49034 2.35774 2.5 2.63142 3.20634 2.86146 2.88158 
2.86204 2.8823 2.8515 2.79604 2.86146 2.88158 2.74776 2.86204 2.85121 
2.79604 2.86338 2.75435 2.79604 2.74777 2.79604 2.75375 2.85121 2.79604 
2.47109 2.7417 2.34552 2.54345 2.35098 2.7417 2.35774 2.57161 2.33065 
2.57351 1.86385 2.03433 2.03782 2.20935 2.357 2.20289 2.35094 2.35094 
2.20289 2.35771 2.21011 2.76284 2.75431 2.82238 2.5724 2.49753 2.85145 
2.796 2.54343 2.79604 2.74109 2.47143 2.76284 2.7417 2.35098 2.76209 
2.54345 2.74109 2.79604 2.54345 2.75435 2.49754 2.85121 2.79604 2.7417 
2.47143 2.331 2.72663 2.66941 2.6779 2.85981 2.86774 2.47099 2.35087 
2.76284 2.7417 2.54345 2.4493 2.49683 2.5434 2.79627 2.7417 2.7016 
1.84286 1.73349 1.5308 2.01439 2.33065 1.53888 2.24351 1.99481 2.7417 
2.57351 1.37693 1.30056 1.642 1.97912 0.821999 0.821999 0.821999 1.8417 
1.6424 1.30034 1.4512 1.66744 1.67343 1.86406 1.86125 2.03435 1.86411 
1.67348 2.20297 2.35105 2.33085 2.32655 2.57356 2.57258 2.32655 2.57258 
2.70417 2.35105 2.47128 2.35752 0.821198 1.16994 2.03803 1.86406 1.66744 
1.85989 1.66744 1.85989 2.03435 2.32655 1.86411 2.03807 2.33088 2.57356 
2.57258 2.35105 2.47128 2.7014 2.82257 2.70417 2.94728 2.94728 2.82257 
3.01633 2.7014 2.82257 2.48227 2.3457 2.47128 2.34474 2.70417 1.64376 
1.79554 2.0848 1.84291 1.97948 2.24517 2.01389 2.21697 3.30487 3.27251 
3.39148 3.37028 3.3703 3.39151 3.20671 3.20676 3.30491 2.85138 2.86353 
3.05297 2.74783 3.08763 2.48228 2.3457 2.34475 2.1927 2.19168 2.47132 
2.34574 2.7014 2.82257 3.12932 3.6279 3.05298 2.94728 2.94301 3.44613 
3.72237 3.27255 3.27255 3.27787 3.48973 3.59134 3.33488 3.27788 3.05298 
2.94301 2.82257 2.72689 2.7396 2.74783 2.48226 2.34475 2.3457 2.82257 
2.72689 2.70004 2.46856 2.5484 2.9935 3.06159 2.80768 3.2171 2.85925 
3.07337 2.9782 3.18434 3.24276 2.85138 2.86353 2.80772 3.02106 2.79612 
2.3457 2.34475 2.72689 2.7396 2.54842 2.53563 2.1927 2.19168 2.1927 
2.19168 2.1927 2.19168 2.72689 3.37027 3.48973 3.2428 3.06159 3.26511 
2.943 2.9782 2.85925 3.21714 3.30956 2.94727 3.05297 2.83056 3.26511 
2.70417 2.943 3.18434 2.54353 2.57257 2.82256 2.79612 2.75424 2.9782 
2.49741 2.47131 2.35105 2.32655 2.47111 2.33067 2.1927 2.34553 2.03783 
2.32655 2.35106 2.03421 2.32655 2.47118 2.76215 2.34595 2.1927 2.48233 
2.53568 2.74783 2.79612 2.72689 2.47118 2.35105 2.3578 2.49761 2.86337 
2.79607 2.75377 2.72683 2.85122 2.74178 2.79607 2.5736 2.74777 2.75354 
2.75437 2.49761 2.80765 2.79608 2.85123 2.54353 2.75437 2.75355 2.47152 
2.74777 2.75355 2.75442 2.3311 2.35106 2.80765 2.75294 2.20297 2.34595 
2.03832 2.47118 2.86344 2.33074 2.32655 2.20297 2.35105 2.03442 2.47118 
2.54353 2.35105 2.79612 2.83056 2.88164 2.85129 2.86212 2.74178 2.72689 
2.82257 2.94292 2.9024 2.83056 2.94728 2.76215 2.74178 2.83056 2.9024 
2.76215 2.74178 2.83056 2.9024 2.76215 2.74178 2.83056 2.76215 2.49761 
2.57166 2.82174 2.75442 2.3578 2.35105 2.3571 2.35105 2.34112 2.27724 
2.34595 2.20297 2.21017 2.27719 2.35102 2.35777 2.35021 2.48952 2.52636 
2.34457 2.3333 2.45001 2.3571 2.35105 2.20942 2.20297 2.35105 2.21017 
1.95884 2.03193 2.27724 1.67378 1.86438 1.84972 1.65744 1.99493 2.26915 
2.11534 1.81807 2.11534 1.67378 1.65744 1.81807 1.99493 2.11534 2.26915 
1.81807 1.65744 1.84972 1.67378 1.86438 2.27724 1.95884 2.03193 2.3404 
2.5264 2.24365 2.03791 2.3578 3.01334 2.48955 2.75361 2.35105 2.20297 
2.21017 3.06181 2.80772 2.54353 2.49761 2.75442 2.79612 2.75361 2.80772 
2.85158 2.57247 3.01403 2.85978 2.80772 2.74783 2.753 2.79612 2.74117 
2.86723 2.75442 2.74783 2.7536 2.85128 2.80771 2.79612 2.7536 2.75442 
2.79612 2.74783 2.7536 2.80772 2.75381 2.74783 2.753 2.75381 2.753 
2.80772 2.85129 2.79612 2.75361 2.80772 2.74783 2.79612 2.75442 2.75361 
2.79612 2.75442 2.86154 2.49761 2.3578 2.35105 2.57166 2.74117 2.3571 
2.79607 2.75437 2.57166 2.70142 2.47148 2.21017 2.20297 2.35102 2.35777 
3.25495 2.83056 2.74178 2.75442 2.76215 2.94292 2.86212 3.04071 2.35105 
2.49761 2.3578 2.83056 2.74178 2.70408 2.47118 2.70145 3.24261 3.19606 
3.05272 3.19539 2.75381 2.74117 2.83056 2.76215 3.01957 2.94292 2.94274 
2.94698 3.01625 2.94325 2.94719 2.49695 2.83056 2.35095 2.74117 2.35699 
2.7272 2.82261 2.47108 2.7012 2.70408 2.83034 2.74797 2.70164 2.79599 
2.86206 2.47178 2.76291 2.70445 2.9024 2.70169 2.57264 2.75402 2.7963 
2.57354 2.70132 2.86194 2.47104 2.3311 1.84269 2.32648 1.53053 2.01362 
1.73253 2.57248 2.57361 2.57264 2.82265 2.57356 2.70134 2.94722 2.57264 
2.82265 1.53872 2.33067 2.57358 1.30056 1.642 2.33303 2.82265 2.94722 
2.70132 2.82265 2.70423 2.57264 2.82265 0.821999 0.821999 0.821999 1.53096 
1.84305 1.64391 1.37668 1.5308 1.48912 1.79555 1.97949 2.24518 2.21695 
2.32367 2.56823 2.51069 2.32367 2.70004 3.26511 3.30956 2.99351 3.07338 
2.46857 2.5484 2.85925 2.74783 2.86353 2.34475 2.34571 2.48228 2.1927 
2.19168 2.19168 2.1927 2.1927 2.19168 2.48228 2.86356 3.08765 3.3702 
3.33479 3.39148 3.30491 3.27247 3.39142 3.3702 3.2778 3.49943 3.24664 
3.28745 2.9782 2.85925 2.75418 2.796 2.85925 3.02099 2.86353 2.70004 
2.8513 2.74153 2.86188 2.85137 2.74783 2.79604 2.74152 3.26556 2.54345 
2.79604 2.49734 2.75417 2.85129 2.86352 2.47128 2.35105 2.32655 2.35106 
2.35759 2.1927 2.27724 1.84296 1.94858 1.86411 2.1927 1.86385 1.86416 
1.94858 2.01389 1.84939 1.9486 1.86384 1.84269 2.34595 2.1927 2.19168 
2.345 2.03421 1.94843 2.27724 2.01374 2.34493 2.3459 2.19264 2.1916 
2.75377 2.47114 2.33074 2.75294 2.74777 2.73952 2.54838 2.35102 2.75355 
2.48226 2.20297 2.34554 2.03791 2.57167 2.20298 2.35106 2.21018 2.35781 
2.35781 2.03442 2.20297 2.21018 2.35105 2.3578 2.03832 2.03442 2.20298 
2.21018 1.86438 2.47151 2.49762 2.35106 2.34595 2.3578 2.75442 2.75361 
2.49761 2.20297 2.80772 2.35105 2.20297 2.20297 2.03791 2.3456 2.57167 
2.82174 2.20297 2.21018 2.03442 2.3578 2.49039 2.3511 2.3578 2.35106 
2.35105 2.3578 2.27724 2.34112 2.34559 2.21018 2.20298 2.35777 2.35103 
2.34107 2.3333 2.3459 2.34493 2.20942 2.27719 2.35707 2.3333 2.34458 
2.3578 2.35106 1.95885 2.27724 2.34112 2.24458 1.67328 1.65744 1.84973 
1.65744 1.99493 1.67328 2.27724 2.33336 2.34464 1.95885 1.65744 1.67328 
1.67328 1.65744 1.65744 1.86393 1.84973 1.67328 1.84973 1.67328 1.65744 
1.86393 2.35106 2.20298 2.21018 2.3578 2.27724 1.95885 2.03276 2.03832 
2.3571 2.20942 2.20297 2.35105 2.74783 2.75361 2.75442 2.79604 2.80772 
2.49761 2.54345 2.75442 2.75361 2.57167 2.80772 2.75361 2.86204 2.7417 
2.75381 2.753 2.74783 2.753 2.80772 2.80772 2.7536 2.75361 2.74783 
2.75442 2.75361 2.74777 2.75355 2.75442 2.76215 2.48955 2.75355 2.82247 
2.89067 2.82169 3.19542 3.24267 3.26486 3.21351 3.00503 3.24267 3.19595 
3.30964 3.24267 3.19595 3.26549 3.20685 2.94719 3.06538 3.26556 3.28729 
3.12942 2.88236 3.33479 2.86212 3.30468 3.20691 2.94278 3.1291 3.05275 
2.85105 3.21328 2.94297 2.82253 2.94299 3.01616 2.86156 2.94719 2.48268 
2.53565 2.79613 2.74819 2.82257 2.94742 2.70156 2.70414 2.82257 2.47155 
2.57255 2.32683 2.47158 2.70417 2.74129 2.75348 2.74828 2.83056 2.75403 
2.34581 2.32648 2.57238 2.32648 2.57238 2.32648 2.57346 2.33085 2.47121 
2.94258 2.82213 2.72665 2.83047 2.47121 2.33085 2.72665 2.70123 2.57345 
2.82213 2.32648 2.33085 2.1768 2.47121 1.30056 1.642 2.464 2.464 
2.32648 2.1768 2.70125 2.57346 2.47121 2.33085 2.70125 2.83047 2.9023 
2.47121 2.70399 0.821999 1.84305 2.09484 1.30038 1.8417 1.79555 2.08481 
2.08481 1.79555 1.97949 2.8596 3.06165 3.01354 2.24518 2.75337 2.21695 
2.32367 2.56823 3.01355 2.75331 2.86745 2.80767 3.0616 2.51074 2.70004 
2.46857 2.54835 1.97949 2.24518 2.21697 2.32367 1.97949 1.79555 2.51069 
2.21695 3.39142 3.27247 3.19579 3.3702 3.39871 3.18434 3.07338 3.66626 
3.39871 3.30485 3.27247 3.2067 2.75411 2.74772 2.75336 3.07338 3.08757 
3.05288 2.86347 2.8513 2.56823 2.8592 2.86346 2.70007 3.07337 2.99352 
3.19579 3.20665 3.24273 3.39142 3.3702 3.57934 3.24273 3.76834 3.66625 
3.68577 3.59104 2.49728 2.796 2.5434 2.75411 2.75331 2.80762 2.8513 
3.02099 2.57186 2.86346 2.35752 2.35098 2.35098 2.35753 2.34563 2.27718 
2.19262 1.86399 1.84292 1.9485 2.19168 1.94848 2.01386 2.03427 1.84296 
2.01389 2.19262 1.86411 1.84986 2.19168 1.89917 1.86403 1.9485 1.84296 
1.84269 1.86384 1.97957 1.9485 1.8987 1.86408 1.84939 1.84262 1.86372 
1.94846 2.20289 2.35094 2.34582 2.35777 2.21017 2.34492 2.1916 2.19256 
2.27712 1.94829 2.01365 2.20942 2.20289 1.86393 2.03782 2.03413 2.3571 
2.3404 2.33336 2.45007 2.34112 2.51074 2.45008 2.33337 2.48955 2.35704 
2.52641 2.4494 2.35021 2.21017 2.3578 2.21017 2.21017 2.20942 1.86393 
2.03782 1.84972 2.3571 2.35098 2.3404 2.27717 2.35021 2.34107 2.3333 
2.34547 2.34457 2.35095 2.27712 2.3333 2.34487 2.24365 2.45001 2.34451 
2.34547 1.86385 1.95877 1.84972 1.9941 1.9941 2.20289 2.35098 2.48203 
1.65744 1.67378 1.65744 1.67319 1.65744 1.67378 1.65744 1.67319 1.84973 
1.65744 1.67378 1.86438 1.67319 1.65744 1.84972 1.86385 2.21017 2.3578 
2.20289 2.35098 1.95877 2.03275 2.03782 2.27717 2.88158 2.86146 2.86723 
2.85919 2.76209 2.94719 2.96925 3.28514 3.38622 2.86795 3.31482 3.2845 
2.4494 3.31482 2.75295 2.94719 2.52641 2.82169 3.2845 3.005 2.72963 
2.52641 3.24274 3.196 2.82169 3.01403 3.06174 3.196 2.72963 3.24274 