# vtk DataFile Version 3.0
vtk output
ASCII
DATASET POLYDATA
POINTS 4205 float
78.6571 86.6357 58.7718 78.6571 86.6357 58.7717 77.106 86.6357 58.7718 
78.3882 86.2263 58.9262 78.3356 86.1863 58.9413 77.7877 85.948 59.0311 
77.5551 85.948 59.0311 77.1402 86.2638 58.912 77.04 86.5687 58.797 
78.7486 86.682 58.7193 78.7486 86.5429 58.8767 79.5818 86.5429 58.8767 
79.5818 86.6541 58.7509 79.5727 86.682 58.7193 78.7486 86.3177 59.0296 
78.4199 87.1172 58.7718 77.8722 87.395 58.7718 77.8543 87.395 58.7718 
78.7486 87.0594 58.6338 78.4594 87.1572 58.7445 77.04 86.6357 58.7465 
77.0278 86.5625 58.797 77.0014 86.5571 58.7909 77.555 87.7747 58.5139 
77.3467 87.8803 58.3943 78.2104 85.9957 59.0851 78.7486 86.1322 59.2396 
77.6416 85.8145 59.0788 77.604 85.8611 59.0452 78.0758 85.6768 59.2398 
77.9153 85.6691 59.2134 77.0819 85.8145 58.8953 77.0819 86.286 58.8953 
77.5306 85.8145 59.0241 76.9908 86.5249 58.8031 76.9676 86.431 58.8297 
79.5818 86.6947 58.7164 79.5818 87.0594 58.6338 79.5818 86.3177 59.0296 
79.6305 86.6047 58.8348 79.9133 86.3177 59.0296 79.7586 86.8089 58.7718 
79.5818 86.1322 59.2396 78.2556 87.7777 58.5104 78.2465 87.7747 58.5139 
78.7486 87.8542 58.1841 78.4353 87.9601 58.304 79.5818 87.8542 58.1841 
76.8335 86.6357 58.7126 76.8164 86.5401 58.7716 77.3084 87.9062 58.3796 
76.9522 88.0418 58.2774 76.6086 87.4606 58.409 76.5962 87.4367 58.4146 
76.5355 87.1903 58.4844 76.8164 86.5397 58.7718 76.9379 86.4712 58.8183 
77.4253 87.9601 58.304 77.1188 88.1948 58.1619 77.2035 88.1853 58.1511 
78.7486 85.7527 59.4973 79.5818 85.7527 59.4973 77.9153 84.9994 59.2134 
77.5306 85.1294 59.0241 78.0758 84.9933 59.2398 77.9332 84.9933 59.2164 
78.7486 84.9933 59.4973 76.9676 85.8145 58.8297 77.0819 85.0915 58.8953 
77.0248 85.0818 58.8625 76.9676 85.0891 58.8297 76.8164 85.8145 58.7718 
79.9105 87.1172 58.7718 79.871 87.1572 58.7445 80.0748 87.7777 58.5104 
79.8951 87.9601 58.304 79.9222 86.3147 59.0331 80.1021 86.1322 59.2396 
80.0865 86.9753 58.7718 80.126 86.9352 58.799 80.2383 87.2834 58.7718 
80.4151 85.8145 59.4553 80.4151 85.7527 59.4973 78.7486 88.2316 58.0986 
78.6572 88.1853 58.1511 79.5818 88.2316 58.0986 79.6732 88.1853 58.1511 
76.8157 86.5402 58.7718 76.6276 86.6357 58.7718 76.5201 86.7266 58.7512 
76.4347 86.9086 58.6727 76.4187 87.1114 58.5625 76.4639 87.2077 58.4951 
76.4885 87.238 58.4709 77.0203 88.1973 58.16 77.0445 88.2218 58.1415 
77.0567 88.2218 58.1415 77.0316 88.2251 58.136 76.6011 87.4493 58.409 
77.01 88.2791 57.9394 77.047 88.3316 57.9479 77.0495 88.3342 57.9508 
76.4585 87.2684 58.409 76.5141 86.6357 58.7718 76.5141 85.8145 58.7718 
77.1121 88.278 58.0461 78.6572 88.3707 57.9412 78.7486 88.3244 57.9937 
77.2034 88.3707 57.9412 79.4904 84.9933 59.4973 79.5818 85.0551 59.4973 
80.4151 85.0551 59.4973 77.0819 85.0239 58.9281 77.9153 84.9933 59.2164 
77.1121 84.9933 58.9528 78.0651 84.8594 59.238 78.0758 84.8548 59.2398 
78.6937 84.2278 59.4763 78.71 84.2296 59.4826 78.7486 84.2557 59.4973 
77.9153 84.8594 59.238 79.2531 84.5117 59.4973 76.8164 85.0892 58.7718 
76.817 85.089 58.772 76.8919 85.0763 58.8007 77.0819 84.9933 58.9479 
76.8592 84.9933 58.8382 76.4134 85.6611 58.7718 76.4134 84.9933 58.7718 
76.6276 84.9933 58.7718 76.8157 85.0887 58.7718 80.0839 87.7747 58.5139 
80.3665 87.488 58.7086 80.1019 87.7747 58.5139 79.9221 87.9571 58.3074 
79.9132 87.9601 58.304 79.6913 88.1853 58.1511 80.4151 87.033 58.9097 
80.4151 86.2381 59.3594 80.4151 87.3976 58.8272 80.4244 87.4104 58.8243 
80.4151 87.4386 58.7924 81.2485 85.8145 59.4553 81.2485 85.7527 59.4973 
81.2485 86.2381 59.3594 81.2485 85.0551 59.4973 79.5818 88.2964 58.0253 
79.5727 88.3244 57.9937 76.363 86.6357 58.7139 76.0975 86.6357 58.409 
76.3007 87.1513 58.409 76.4222 87.25 58.409 77.0567 88.3342 57.9508 
76.5006 87.8025 57.6834 76.3111 87.418 57.901 76.698 88.0529 57.6834 
76.9319 88.4485 57.6834 77.1188 88.3612 57.9304 77.3339 88.6886 57.6833 
77.0591 89.107 57.3677 77.0557 89.0992 57.3735 77.0107 88.6885 57.6834 
76.2688 87.4057 57.8802 76.3051 87.418 57.8941 76.363 85.8145 58.7139 
78.4353 88.5959 57.7883 77.4253 88.5959 57.7883 78.7486 88.7018 57.9082 
79.5818 88.3371 57.9908 79.5818 88.7018 57.9082 79.5818 84.9933 59.5393 
79.5818 84.5695 59.6352 79.2926 84.4717 59.5245 80.4151 84.9933 59.5393 
81.2485 84.9933 59.5393 77.3782 84.7232 59.0838 77.2425 84.1721 59.2398 
77.0999 84.1721 59.2164 77.0819 84.1903 59.2075 77.9153 84.1721 59.4973 
78.6571 84.1721 59.4973 78.7486 84.1905 59.5268 78.7486 84.1721 59.5393 
78.7667 84.1721 59.5393 79.1942 84.1721 59.6375 76.7644 84.5125 58.9471 
76.2705 84.6308 58.7718 76.2486 84.5881 58.7776 76.2486 84.4078 58.8286 
76.0975 85.8145 58.409 76.0975 84.9933 58.409 80.3745 87.4981 58.7017 
80.4151 87.5032 58.7193 80.4151 87.8806 58.6338 80.0124 88.2318 58.2038 
80.4151 88.3681 58.358 80.1188 88.5848 57.9347 80.1827 88.5199 58.0081 
81.2485 87.4104 58.8243 81.2485 87.033 58.9097 81.2393 87.5032 58.7193 
81.2485 87.4752 58.7509 81.3399 85.8145 59.4973 81.5376 86.336 59.4701 
81.5771 86.2959 59.4973 82.0269 85.0551 59.4973 82.0269 85.8145 59.4973 
81.5617 87.1389 59.0296 81.7414 86.9565 59.236 82.0818 84.9994 59.5352 
82.0818 84.9933 59.5393 75.7184 86.6357 57.6834 75.9807 87.2595 57.7148 
75.9534 87.2318 57.6834 75.7184 85.8145 57.6834 76.2134 87.5111 57.6834 
76.5993 87.9528 57.57 76.4995 88.054 57.1117 76.0975 87.7141 56.9578 
76.0554 87.6714 56.9578 76.8354 88.5464 57.2402 77.4253 88.7813 57.5784 
77.0714 89.1404 57.3345 78.2556 88.7783 57.5819 78.2465 88.7813 57.5784 
76.1831 87.4927 57.6834 75.9602 87.2664 57.6834 78.4594 89.3988 57.3478 
78.7486 89.4966 57.4585 79.5818 89.4966 57.4585 80.188 88.7018 57.9082 
80.4151 89.0091 57.7343 80.4151 89.0992 57.6833 80.0275 89.4925 57.4608 
80.0176 89.4966 57.4585 80.4151 84.5695 59.6352 80.4151 84.1721 59.8601 
79.5818 84.1721 59.8601 81.2485 84.5695 59.6352 82.0818 84.5695 59.6352 
77.2425 84.0336 59.2398 77.2318 84.0382 59.238 77.8658 83.4011 59.4784 
77.9153 83.4346 59.4973 77.0819 84.0382 59.238 77.0819 84.1721 59.2164 
76.2788 84.1721 58.9528 76.2486 84.2028 58.928 78.4199 83.6906 59.4973 
78.4594 83.6505 59.5245 78.7486 83.7483 59.6352 79.1843 83.7483 59.6352 
79.1942 83.7443 59.6375 79.5818 83.3509 59.8601 76.1846 84.4782 58.7719 
76.1676 84.3749 58.7914 76.1264 84.3267 58.7878 75.7184 84.9933 57.6834 
81.2485 87.8806 58.6338 81.2485 87.516 58.7164 81.2485 88.278 58.409 
81.1598 88.3681 58.358 80.4151 88.5985 58.0971 80.9357 88.5955 58.1006 
80.9266 88.5985 58.0971 80.4151 88.7787 57.9952 81.2891 87.4156 58.8418 
81.2972 87.4258 58.8348 81.4253 87.6301 58.7718 82.0818 85.8982 59.4973 
82.0818 86.5521 59.4973 82.0818 86.6172 59.4678 81.7505 86.9535 59.2395 
82.4161 84.9933 59.7655 82.4161 85.4753 59.7655 82.0818 85.8145 59.5352 
82.0998 84.9933 59.5475 81.5799 87.1389 59.0296 81.7687 86.9535 59.2395 
81.589 87.1358 59.0331 82.4085 84.68 59.7603 75.846 87.0502 57.4779 
75.7098 86.6357 57.6343 76.0251 87.6529 56.9578 77.7961 89.2383 57.2681 
77.0962 89.2383 57.2681 77.9762 89.7867 57.0612 78.0261 89.8261 57.0548 
78.0368 89.8276 57.0566 75.7888 87.3244 57.1586 75.854 87.4568 57.0087 
75.9649 87.5919 56.9578 78.2003 89.9204 57.1107 78.7486 89.9204 57.3625 
78.0756 89.8782 57.0629 79.5818 89.9204 57.3625 79.6 89.9204 57.3625 
80.522 89.0091 57.7343 80.7491 88.7787 57.9952 80.5664 89.0992 57.6833 
81.2485 89.7853 57.6833 81.2485 89.9204 57.6833 80.4151 89.9204 57.6833 
81.0252 89.332 57.6833 80.0275 89.9204 57.4608 81.2485 84.1721 59.8601 
80.4151 83.3509 59.8601 81.2485 84.037 59.8601 81.0252 83.5837 59.8601 
80.5663 83.3509 59.8601 82.0818 84.1721 59.8601 82.4161 84.6785 59.7655 
82.5809 84.5112 59.9548 82.4847 84.2183 60.0653 82.348 84.1721 60.0129 
77.8603 83.3509 59.4973 77.0819 83.3509 59.4973 77.9153 83.3509 59.5352 
78.361 83.3509 59.6375 76.5449 83.902 59.0838 76.2488 82.5605 59.4765 
76.283 82.5401 59.4973 76.2486 82.6986 59.4243 76.2486 82.5608 59.4763 
76.2486 84.1721 58.9478 76.1169 84.3241 58.7848 76.0694 84.2823 58.7884 
76.026 84.1721 58.8383 78.7486 83.3509 59.8601 79.5818 82.5297 59.8601 
78.7486 82.5297 59.8601 80.4151 83.2609 59.911 80.188 82.9535 60.085 
79.9795 82.9535 60.085 79.9695 82.9576 60.0827 79.6826 82.5297 59.918 
79.9695 82.748 60.0827 76.0968 84.3445 58.7719 81.5771 87.9383 58.7718 
81.5376 87.9784 58.7445 81.636 88.278 58.6315 81.636 88.6097 58.6315 
80.9811 88.8258 58.0485 81.3349 89.0053 58.2517 81.673 88.6623 58.64 
81.7532 87.7964 58.7718 81.7927 87.7563 58.799 81.9051 88.1048 58.7718 
82.626 86.1141 59.5245 82.5865 86.1542 59.4973 82.7932 86.5738 59.4973 
82.0961 86.5738 59.4973 82.0818 86.6357 59.4553 82.842 86.6357 59.4553 
82.5809 84.9933 59.9548 82.5809 85.3081 59.9548 83.2283 86.3178 59.7551 
83.4082 86.1353 59.9617 83.2044 85.5149 60.1957 82.5884 85.3066 59.9599 
82.0818 87.0594 59.3594 82.0818 87.8541 58.9097 75.7489 87.1488 57.1433 
75.4455 86.6357 57.0272 75.4455 85.8145 57.0272 75.7098 85.8145 57.6343 
77.555 89.7867 57.0612 77.1402 89.471 57.1803 77.1206 89.4115 57.2027 
77.6303 89.9204 57.0396 77.9332 89.9204 57.0396 78.0756 89.9204 57.0629 
78.7486 89.9822 57.3206 78.1125 90.7416 57.0771 78.0756 90.7125 57.0629 
78.7486 90.6798 57.3206 78.639 90.7416 57.2786 79.5676 89.9822 57.3206 
79.5818 89.9388 57.3501 80.1259 90.2199 57.3478 80.0865 90.26 57.3206 
79.5818 90.0039 57.3206 81.1621 89.1931 57.8406 81.3373 89.8303 57.7343 
81.5613 89.6029 57.9917 81.5159 89.3727 58.0438 81.2485 90.3178 57.4585 
80.4151 90.3178 57.4585 81.6842 90.3178 57.4585 81.6943 90.3137 57.4608 
82.0818 89.9204 57.6833 82.0818 89.8303 57.7343 82.0818 84.037 59.8601 
80.522 83.2609 59.911 81.162 83.4448 60.0173 81.2485 83.4887 60.067 
82.0818 83.4887 60.067 80.7491 83.0303 60.172 80.981 83.0774 60.2252 
82.8215 84.2672 60.1205 82.897 84.9933 60.1726 82.97 84.9686 60.2229 
82.97 84.2339 60.2229 82.9151 84.2228 60.1851 82.4574 84.1721 60.0967 
82.9151 84.1721 60.2281 82.3494 83.6244 60.2206 77.8603 82.5297 59.4973 
76.2912 82.5297 59.4973 77.9153 82.5297 59.5352 78.361 82.5297 59.6375 
[...]
CELL_DATA 3017
FIELD FieldData 3
Radius 1 3017 double
2.34557 1.97945 1.75495 1.899 2.27718 1.5308 2.35753 1.99465 2.70408 
2.57248 2.82248 2.94292 2.57346 2.70131 2.94719 2.70408 2.94288 2.94716 
2.83047 3.12924 3.01956 3.27781 3.0652 3.38579 3.34683 3.58784 3.6279 
3.59134 2.85138 2.70417 2.74779 2.79608 2.4498 2.70131 2.47119 1.53897 
1.84966 2.79612 2.57258 2.75418 2.86194 2.57356 2.7014 2.33332 2.72681 
2.0956 2.83047 2.94719 2.34079 2.10391 2.74146 2.94292 2.9023 2.82248 
2.72689 2.70417 2.85137 2.53563 2.57356 2.48976 2.47119 2.32646 2.03436 
2.35106 2.54353 2.25404 2.33076 2.86735 2.47119 2.03804 2.3457 2.35106 
2.20298 2.86184 2.74152 3.19579 3.01621 2.94716 2.49742 2.75419 2.82253 
2.54353 2.79607 2.57258 2.57258 2.82253 2.57354 3.43733 3.12923 3.41503 
3.01956 3.38579 3.28469 3.31482 3.40497 3.05297 2.70139 3.27251 2.94724 
2.83052 2.57354 2.94301 3.27788 2.70418 2.82257 2.57258 3.58411 3.27254 
2.94728 3.62329 2.7014 2.57356 3.5839 3.27787 3.44605 2.57356 2.83056 
2.9475 2.70131 2.83056 2.70131 3.12924 3.01956 3.26563 3.3703 3.33479 
2.82248 2.57248 2.57344 2.94301 2.85137 2.57344 2.79607 2.86353 2.47128 
2.70417 2.03435 2.351 2.54348 2.80768 2.48226 2.74783 2.32655 2.75337 
2.75418 2.47128 1.85989 2.1927 2.75337 2.3457 1.85989 2.1927 2.03436 
1.86125 2.35106 2.1768 2.32655 2.47128 2.33085 2.7396 2.86353 2.03803 
2.3457 2.1927 1.85989 2.03435 2.35105 1.86124 2.1768 2.33085 2.3457 
2.03807 2.34573 2.1927 1.85989 2.03433 1.86122 2.35105 2.1768 2.03434 
2.03804 1.86407 2.1768 2.35106 2.03803 1.85989 2.1927 2.3457 1.86122 
2.351 2.03434 2.1768 2.20297 2.35105 2.32655 2.20995 2.35759 2.1768 
2.32655 2.3457 2.03803 1.85989 2.1927 1.86124 2.33085 2.20297 1.86124 
2.33085 2.47128 2.32655 1.86124 2.20297 2.35106 2.03436 2.47128 2.33085 
2.1927 1.85989 2.03803 2.3457 1.86125 2.03435 1.86125 2.88186 2.76238 
2.20297 2.35105 2.03803 1.85989 2.33085 2.20297 1.86125 2.86211 2.94746 
2.74153 2.83052 2.70413 2.47118 2.32644 2.57253 3.01646 2.83047 1.48845 
2.83047 1.8177 1.8177 1.99455 2.8076 2.51061 2.44974 2.75331 2.75336 
2.4498 2.82195 2.52665 2.72681 2.48221 2.19262 2.32646 2.03425 2.33075 
2.34563 2.03794 1.85979 2.19262 1.85979 2.19262 2.35098 2.03427 1.86115 
2.1927 2.75418 2.33075 2.1767 2.1927 2.1767 2.34475 2.19167 1.85979 
2.03795 1.85979 2.34478 2.03425 2.27724 1.86113 1.85989 1.66744 2.33075 
2.49735 2.35752 2.35105 2.03435 1.85989 1.66744 1.66744 1.85989 2.1767 
2.03807 2.03435 1.86411 2.03794 1.85979 2.27724 2.34475 1.86113 2.03425 
2.27718 1.86407 1.67343 1.4512 1.66744 1.85989 1.86125 1.66744 1.67348 
1.86407 2.03436 2.03803 2.1767 2.27724 2.34475 2.03795 1.85979 2.03427 
1.86115 2.27724 1.4512 1.66744 1.67348 1.86411 1.67343 1.86124 1.66744 
1.85989 1.86407 2.03803 2.03435 2.1767 2.03794 2.27724 1.85979 1.86115 
2.35759 1.4512 1.86406 1.66744 1.67343 1.67343 1.86125 1.86115 2.20995 
2.27724 1.86125 1.67343 1.86407 1.66744 1.85989 1.86407 2.20995 1.86115 
1.94858 1.84973 1.95885 1.86407 1.85989 1.67343 1.66744 1.86122 1.86406 
1.94855 1.85979 1.84291 1.86406 1.86406 1.86115 1.84972 1.4512 1.67343 
1.67343 1.66739 1.42564 1.67343 1.56468 1.65744 1.66744 1.4512 1.86407 
1.67343 1.4512 1.4257 1.16544 1.4512 1.67343 1.56465 1.43095 1.67343 
1.65744 1.67343 1.66744 1.4512 1.86406 1.67343 1.67343 1.65744 1.67343 
1.67343 1.65744 1.67343 1.95878 2.35126 1.84959 1.86115 1.86393 2.33079 
2.79613 2.54351 2.75426 2.49741 2.03806 2.74152 2.86175 2.54351 2.83047 
2.74152 1.84242 1.5302 1.48912 1.79555 3.58784 3.59135 3.6279 3.58787 
2.76224 2.35039 3.6279 3.59131 3.4962 2.26838 2.48969 2.35039 2.88169 
2.76224 2.85947 3.20659 2.96912 3.4373 3.30474 3.6279 3.59129 3.49616 
3.71966 3.58783 3.05283 3.4962 3.01622 3.18025 2.86744 2.67754 3.21369 
3.01624 2.70129 2.8592 3.0779 3.02099 3.32456 2.54836 2.4822 2.72681 
2.48221 2.19161 2.19261 2.03794 2.54836 2.19161 2.19261 1.85979 2.19161 
2.03794 2.19261 2.19161 2.03427 2.27717 1.9485 2.03794 1.86399 1.85979 
1.66735 1.66735 1.85979 1.6437 1.66735 1.86399 1.84286 1.66735 1.56459 
1.42563 2.53555 2.72681 2.32646 2.03425 2.53555 2.48221 2.72681 2.79604 
2.53555 1.4511 1.66735 1.67335 1.86399 1.43093 1.66736 1.56459 1.6437 
1.67339 1.66735 1.86398 1.86399 1.85979 1.84286 2.19162 2.34563 1.94851 
2.33075 2.32645 2.34562 2.03427 2.54345 2.25394 2.35098 1.67334 1.86398 
1.66735 1.86115 1.85979 1.86399 2.03795 2.1767 2.03427 2.19261 2.1767 
2.35098 2.34562 2.19261 2.03794 2.34562 2.03427 2.35098 1.85979 1.66735 
1.86399 1.67335 1.86115 2.1767 2.03794 2.19262 1.86398 2.03425 2.1767 
2.34563 2.35093 2.03795 2.19261 1.85979 2.34562 1.86115 2.03426 2.35098 
1.85979 1.66735 1.86113 1.67334 1.86399 2.03794 2.1767 2.03425 1.86399 
2.1767 2.35093 2.34566 2.03798 2.19262 2.03425 1.86112 1.67334 2.19261 
2.1767 2.34562 2.20284 2.20289 2.35098 2.03425 1.86113 1.66735 1.85979 
1.86112 1.67334 2.03795 2.1767 2.03425 1.86399 2.1767 2.35098 2.34562 
2.03794 2.19261 1.85979 1.86113 1.67334 1.66735 1.4511 1.86399 1.84292 
1.84966 1.86113 1.67335 2.19262 2.20289 2.1767 2.34566 2.20284 1.86113 
1.86113 1.67335 1.66735 1.85979 1.84966 1.86403 2.03798 2.1767 2.03427 
1.86113 1.4511 1.67335 1.65737 1.37662 1.42561 1.43094 1.67339 1.65738 
1.84962 1.86395 1.67335 2.03425 2.19262 2.03794 1.85979 2.34563 1.4511 
1.10494 1.42567 1.66735 1.1654 1.37669 1.67339 1.86115 2.27712 1.95875 
1.85977 2.20981 1.86113 1.65744 1.67339 1.86115 2.20981 1.86113 1.86115 
1.67339 1.65744 1.86113 2.20981 1.86115 1.67339 1.65744 2.20981 1.86113 
2.03806 1.67339 2.32674 1.86115 1.84959 2.20981 2.35121 2.20284 2.03413 
2.88174 2.4974 2.33075 2.35126 2.49734 2.54351 2.57255 2.74151 2.57346 
2.88174 1.84232 1.5308 2.08481 1.53899 2.33075 1.84286 2.57344 2.32645 
2.1767 1.84967 2.32362 2.53554 2.4822 1.97949 1.79551 2.34566 2.47119 
2.03427 2.03794 2.25392 2.53553 2.34562 2.8513 2.5434 2.72681 2.19262 
1.31571 1.37664 1.50248 1.89899 3.01959 2.82248 2.57248 2.57345 3.01959 
2.57345 2.35034 3.12923 3.43733 3.25507 3.19579 3.00492 2.89054 2.60305 
2.70131 3.0529 3.27247 2.94719 2.57248 3.43735 3.12926 3.4461 2.70411 
2.57248 2.94295 2.82248 3.27785 2.57345 3.05289 3.27247 2.94719 2.7013 
2.94292 3.27785 2.70408 2.57248 2.82248 2.57344 3.34683 3.01956 2.83043 
2.94715 2.53553 2.48213 2.57344 2.85124 3.34683 3.01956 2.32642 2.70128 
2.57248 2.94288 2.19256 2.19154 2.34557 2.19256 2.34462 2.03423 2.27712 
2.47119 1.86398 2.19161 2.1767 2.19261 2.03794 2.03424 1.66735 1.85979 
1.86398 2.03794 2.03424 2.19261 2.1767 2.19161 1.85977 2.27707 2.19154 
2.34462 2.03793 2.03796 2.19256 2.34465 2.27717 2.03425 1.64369 2.03795 
1.85979 1.86399 1.66735 1.84286 2.1767 2.03798 1.86403 2.03427 2.19161 
2.34468 1.85979 2.03794 2.27717 2.32645 2.34562 2.48221 2.19261 2.34469 
1.85979 2.47119 2.73953 2.72681 2.74777 2.72681 2.73953 2.34562 2.53553 
2.25392 2.03794 2.72681 2.5434 2.79604 2.74777 2.53554 2.48221 1.43092 
1.37669 1.42563 1.85979 1.66735 1.6437 1.67339 1.86115 1.85979 1.66735 
1.84286 2.33076 2.03425 2.47119 2.34563 2.32646 2.34563 2.19262 2.35098 
2.03427 2.19161 1.86398 2.03424 2.03794 2.1767 2.19261 2.1767 2.19261 
2.35093 1.85979 2.03798 2.34472 1.86113 2.03425 2.27717 1.86399 2.03795 
1.85979 1.66735 1.86403 2.1767 2.03798 2.03427 2.03794 2.27717 2.19261 
2.35746 2.03425 2.19262 2.03427 1.67339 1.86403 1.86115 2.19161 2.27712 
2.35746 1.94848 2.20981 1.86113 1.66735 2.03794 1.85979 1.86399 1.84286 
1.86399 1.9485 1.85979 2.19161 1.86399 1.85979 2.27718 2.34469 2.27718 
1.86115 1.4511 1.86398 1.66735 1.67334 1.67335 1.86115 1.85979 1.66735 
1.86398 1.86115 1.95877 1.84966 1.86399 1.67335 1.4511 1.67334 1.65738 
1.67335 1.67335 1.4511 1.67334 1.65738 1.67335 1.67335 1.4511 1.67334 
1.65738 1.67335 1.4511 1.67334 1.86398 1.66735 1.65738 1.84962 1.86394 
1.6673 1.4511 1.67334 1.65738 1.67335 1.84962 1.86394 1.4511 1.67335 
1.67334 1.86113 1.95869 2.03792 1.67335 1.4511 1.67334 1.67335 1.65738 
1.84967 1.86399 1.95871 2.03794 1.67335 1.4511 1.67334 1.67335 1.65738 
1.86115 1.67335 1.66735 1.85979 1.86398 1.86115 1.95877 1.84966 2.20988 
1.86399 2.35774 2.35126 2.20981 2.20289 2.03415 2.03789 2.32674 2.1767 
1.86386 2.35743 2.20289 1.86115 2.27701 2.20289 1.86115 1.53013 2.24521 
2.08481 1.30037 1.6424 0.821198 0.821198 2.32367 2.47131 2.48228 2.34573 
2.34478 2.01386 1.94857 1.48911 2.19167 1.79554 2.79607 2.74778 2.75336 
1.09584 1.48911 1.09584 1.86406 2.03433 2.57258 2.32655 2.03803 2.47128 
2.351 2.72689 2.73959 2.79612 2.74783 2.75342 2.75423 2.79612 2.85137 
2.80771 2.47128 2.70417 2.9024 2.19168 2.1927 2.3457 2.79612 2.74783 
2.8514 2.79612 2.86356 2.75424 3.01633 3.01965 3.01631 2.943 2.85137 
2.94725 2.94727 2.80772 2.75337 2.85138 3.1293 3.01631 3.26557 3.01965 
2.9024 2.83056 2.104 2.9024 3.01634 2.82257 2.0325 2.83051 2.94723 
2.70138 2.57354 2.53561 2.79607 2.70417 2.94296 2.57258 2.70417 2.3409 
2.35048 2.32655 2.88185 2.57258 2.25402 2.54348 2.03433 2.351 2.33085 
2.20292 1.86122 2.33085 1.86122 2.20292 2.32655 3.32534 3.21375 2.47131 
2.32655 2.1768 3.11306 2.86194 2.03433 2.351 2.20292 1.86122 2.1768 
2.33085 2.47128 2.32655 2.03803 1.85989 2.3457 2.1927 1.86125 2.35106 
2.03436 2.33085 2.1768 1.85989 2.1927 2.3457 2.03803 2.1927 1.85989 
2.1927 1.85989 2.3457 2.03803 2.20292 2.19161 2.3457 2.34468 2.1927 
2.33085 2.1768 2.19161 2.1927 2.1768 2.1768 2.1927 2.1768 2.34573 
2.20292 2.03433 2.351 1.85989 1.66739 2.03803 1.86403 2.19264 2.19161 
2.1768 1.86407 2.03807 2.03432 2.19264 2.1768 2.35102 2.19264 2.19161 
2.03803 2.34468 2.34565 2.34468 2.27719 2.35102 2.34468 1.85989 1.66744 
1.86406 2.03803 1.66744 1.85989 1.86406 2.03803 2.03433 2.27713 2.351 
2.48228 2.54841 2.35752 2.34475 2.3457 2.19168 2.1927 2.1927 2.34475 
2.19167 2.3457 1.94857 2.27724 2.01388 2.03435 1.66744 1.86411 1.64376 
1.66744 1.84296 1.86411 1.86407 1.84292 1.94858 2.1927 1.86406 2.1927 
2.27724 2.35759 2.03436 1.86124 1.67343 2.03435 1.86406 2.1927 2.19167 
2.20297 2.1927 2.1768 2.03803 2.1927 2.34475 2.03435 2.27724 1.66744 
1.86407 1.85989 2.03803 2.1768 1.86406 2.03803 2.03433 2.03803 2.27718 
1.85989 2.34474 1.86125 2.27724 1.4512 1.67343 1.86407 1.66744 1.84292 
1.66744 1.86122 1.85989 1.67343 1.86406 1.86125 1.95884 1.86406 1.84972 
2.20987 1.67343 1.86122 1.95878 2.27718 2.34475 2.19168 1.85989 1.94858 
1.86125 2.27724 1.67343 1.86122 1.85989 1.66744 1.84966 1.66744 1.85989 
1.86411 1.67343 1.4512 1.65737 1.4512 1.16544 1.67348 1.431 1.4512 
1.67343 1.65737 1.4512 1.16544 1.66744 1.67343 1.65737 1.86122 1.85989 
1.66744 1.4257 1.95884 1.84973 1.56468 2.20987 1.65737 1.67343 1.86122 
2.03429 1.84961 1.86402 1.86125 2.20987 2.27724 1.94857 2.20291 2.20987 
2.20297 2.27724 2.03431 2.20987 1.85989 1.66744 1.65737 1.67343 1.86122 
2.03434 1.84966 1.86407 1.86406 1.86406 1.95884 1.84972 2.20297 2.20987 
1.65737 1.4512 1.67343 1.67343 1.67343 1.65744 1.84966 1.67343 1.4512 
1.67343 1.65744 1.67343 1.84959 1.86393 1.67343 1.4512 1.67343 1.86122 
2.03801 1.95878 2.20297 2.20987 1.67343 1.86122 1.66783 1.85998 1.86442 
2.03811 2.03466 2.20297 2.3578 1.86397 1.28411 1.28411 1.64376 1.64376 
2.75423 2.75342 2.74783 2.75336 2.80767 2.75336 1.79554 1.97948 1.79554 
1.97948 2.86195 2.75424 2.74783 2.75343 2.86181 3.04085 2.75337 2.82197 
2.88186 2.80772 2.75342 2.80772 2.94288 3.12921 2.86189 2.94712 2.94715 
2.86186 3.12924 2.94292 2.85955 2.86353 2.85138 3.38577 3.25504 3.19579 
3.25507 3.38579 2.47128 2.74154 2.83043 2.70408 2.47128 2.32655 2.33085 
2.1768 2.3457 2.1768 2.47128 2.20297 2.03435 2.74152 2.03803 2.03436 
2.1768 1.86407 2.1768 2.35106 2.20297 1.86124 1.67343 1.86125 2.1768 
2.20298 1.86124 1.86125 1.66744 1.85989 1.67343 1.86407 2.03436 1.84973 
1.86125 1.95885 2.3576 2.20995 1.86407 1.94858 1.85989 2.03804 2.1927 
2.3457 1.84966 1.4512 1.86407 1.67343 1.66744 1.66744 1.67343 1.86123 
1.85989 1.64376 1.84292 1.66744 1.86407 1.66744 1.4257 1.56468 1.4512 
1.67343 1.66744 1.86407 1.4512 1.66744 1.431 1.16328 1.4512 1.66744 
1.67343 2.03436 1.86407 1.43094 1.94858 1.84292 1.56468 2.03803 2.1927 
2.27724 1.95885 2.3457 2.53553 2.796 2.86181 2.3457 2.1768 2.20988 
2.20298 2.57345 2.33085 2.83043 3.01956 3.2778 3.06516 2.19161 1.86407 
2.1927 2.1768 2.03804 2.20988 2.03436 2.20298 2.70129 2.82248 2.4822 
2.3457 2.34468 2.33085 2.47128 2.57345 2.35106 2.83043 3.01956 2.94292 
3.19574 3.25507 3.28469 2.35749 2.35097 2.34078 2.47125 2.70408 2.33324 
2.70127 2.72683 2.82244 2.82244 2.94712 2.85127 2.796 2.34475 2.19168 
2.57248 2.32655 2.70408 2.47128 2.1927 2.3457 2.48973 1.94856 2.35105 
2.54345 2.27724 1.64376 1.84296 1.85989 1.86411 1.66744 2.03807 2.1927 
2.19168 1.94858 1.86407 1.84291 2.03436 2.01389 2.1927 1.84291 2.19168 
1.86407 2.19168 2.1927 2.3457 2.19168 2.27724 1.94858 2.27724 2.01389 
1.86407 2.1927 2.03434 2.19168 1.86407 2.1927 1.84292 2.19168 1.94856 
2.1927 2.19168 2.27719 2.3457 2.34475 2.35106 2.27724 2.03803 1.85989 
1.86407 1.66744 1.86407 2.20297 1.95885 1.86407 1.94858 1.84973 1.66744 
1.67343 1.85989 1.86123 1.84296 1.94858 1.86411 1.86411 1.86407 1.84973 
1.66744 1.4512 1.67343 1.86407 1.84965 1.67348 1.67343 1.65744 1.84973 
1.86407 1.86412 1.84297 2.03436 1.67348 2.01389 1.86125 2.03803 1.95885 
2.27724 2.20292 2.20988 1.84973 2.20298 2.20292 2.20988 1.9946 1.16544 
1.431 1.10502 1.65744 1.81771 2.351 1.16544 1.10502 1.65744 1.81771 
1.86125 1.42571 1.37675 1.67348 1.431 1.84973 2.20988 1.9946 1.86125 
1.67348 1.84296 2.20988 2.03432 2.03806 2.20995 2.57346 2.33088 2.20298 
1.86407 2.35749 2.5719 2.74146 2.57346 2.33088 2.34569 1.84973 1.86411 
2.03808 2.20995 2.20298 2.03251 2.03436 2.74146 2.35752 2.57191 1.65744 
1.67348 1.86125 2.20988 2.03424 1.65744 1.67348 1.86125 1.86398 1.84959 
2.20988 2.20298 2.20995 2.20988 2.0848 2.24517 2.24517 2.0848 1.16994 
1.30034 1.6424 0.821198 0.821198 4.0686 3.98235 2.86745 2.86346 2.32366 
2.46856 2.73953 3.2137 3.9924 2.85954 3.87312 2.32366 2.46856 2.86346 
2.73953 3.81188 3.98235 1.48909 1.09584 1.37668 1.09584 3.71968 2.96925 
3.34682 3.43728 3.28469 2.88179 3.30485 2.86744 2.8596 3.2067 3.49619 
3.59134 3.72237 3.81188 3.5878 3.71968 3.81188 3.39871 4.43028 3.81188 
3.72237 3.71968 2.21697 3.29158 2.54836 3.59134 1.79555 3.6279 3.12921 
3.34682 3.38579 3.2137 3.32526 3.415 3.27781 3.32529 3.41502 3.33474 
3.38576 3.19579 3.21365 3.6279 3.44603 3.59132 3.43728 3.58781 3.58781 
3.43728 3.48969 3.72237 3.33474 3.72237 3.48969 3.33474 3.6279 3.6279 
3.43728 3.58781 3.58783 3.59132 3.01624 3.01956 2.94719 3.06521 2.86187 
2.88179 3.12924 3.12924 3.01624 3.01624 3.6279 3.12924 2.49734 2.20995 
2.57346 2.03427 1.86411 2.33079 2.03798 2.20289 2.82248 2.9023 2.83047 
2.35098 2.82248 3.01956 3.01956 3.01624 2.94292 2.9023 2.9023 3.01624 
3.01956 2.94719 3.2847 2.19262 1.86115 1.67348 2.57248 2.32645 2.34563 
2.20289 2.32645 2.57248 2.70408 2.9023 2.47119 2.70129 2.9023 2.94715 
2.9023 3.01959 3.27784 3.06521 1.66744 1.67348 1.85979 1.86115 1.86407 
2.1767 2.03427 2.03794 2.19262 2.1767 2.35098 2.34563 2.33075 2.57345 
2.83043 2.9023 2.9023 3.01959 3.28469 1.66744 1.4512 1.86407 1.67343 
1.66744 1.86407 1.64376 1.84292 1.84966 1.4512 1.66744 1.67343 1.86115 
1.85979 1.86407 2.1767 2.03427 2.03795 2.33075 2.35098 2.57345 2.9023 
2.83043 3.01624 3.01956 1.53891 1.431 1.09584 1.16328 1.37674 1.4512 
1.67348 1.4512 1.37668 1.43094 1.66744 1.4257 1.67343 1.86115 2.03427 
1.86407 2.19168 1.84973 2.19261 2.57345 2.33075 2.70129 2.82248 2.48219 
2.20289 2.47119 2.72681 2.34475 2.34562 2.83043 2.9023 2.74772 2.94292 
2.8513 3.01624 2.70131 2.83047 2.94719 2.94295 2.88173 2.86181 3.19579 
2.57346 2.83047 2.88179 2.86181 2.70131 3.2137 3.19579 2.82248 2.7013 
2.94719 2.82248 2.82248 2.94715 2.7013 2.94295 2.70411 3.25507 3.04085 
3.32529 2.94719 2.83047 2.94292 2.94719 2.82248 2.70408 2.9023 2.9023 
2.9023 3.01959 3.12926 3.27785 2.86342 3.28469 3.21365 3.32529 3.19579 
3.31482 3.06521 3.27784 3.38579 3.24264 2.83047 2.94715 2.70129 2.57344 
2.94288 3.34682 2.75412 3.19574 2.97807 3.24267 2.8076 3.19579 2.70408 
2.57248 2.94292 2.57248 2.82248 2.57248 2.82248 2.57248 2.82248 2.19167 
2.01388 2.70408 1.84291 2.35759 2.19261 2.49734 2.35098 2.47119 2.34475 
2.32366 2.4822 2.34562 2.8076 2.75326 2.94288 2.82244 2.82244 2.94288 
2.80766 2.94719 1.84291 2.35098 2.19168 2.19261 2.01387 2.9023 2.19168 
2.19261 2.9023 2.34475 2.34562 2.48219 2.72681 2.85132 2.80767 2.75337 
2.53553 2.48219 2.74777 2.79604 2.75331 2.32646 2.35759 2.35098 2.47123 
2.34566 2.19262 2.34563 2.03425 2.35093 2.03427 2.1767 2.01388 2.20995 
2.20289 2.03799 1.86411 1.84973 2.03251 1.84296 2.1767 2.35098 2.19262 
1.85979 2.34563 2.03794 1.86115 2.1767 2.20289 1.84973 1.86115 2.20289 
1.65744 2.1767 2.03427 1.86406 2.03794 1.84973 2.03427 2.20289 2.35753 
2.20987 2.20289 2.20289 2.35098 2.20988 2.35753 2.33075 2.20289 2.20987 
2.11465 2.49727 2.35048 2.35752 2.35098 2.35098 2.54345 2.35753 2.57185 
2.74152 2.76231 2.11465 2.26851 2.35048 2.75411 2.57346 2.79604 2.86187 
2.83047 2.8219 2.60317 2.88179 2.35048 2.57346 2.83047 2.60317 2.72963 
2.94719 3.48973 2.35048 3.01956 3.49619 3.59132 3.6279 2.48977 2.76231 
2.7296 2.89062 2.94716 2.76231 2.4898 2.89062 2.72963 2.94719 2.86181 
2.35048 2.88179 2.74758 2.86187 2.60317 2.83047 2.70131 2.79604 2.35048 
2.74145 2.47109 2.35048 2.08481 1.53079 1.28411 1.28411 1.64369 2.9023 
3.01956 1.84285 2.19261 2.34562 2.70408 2.47119 1.64369 2.57248 2.32645 
3.01624 3.01624 3.12926 3.33474 3.4373 3.01958 3.4461 2.32362 3.68575 
3.01624 3.01624 2.94292 3.01624 3.12923 2.82248 3.01624 2.94292 3.01956 
2.9023 3.1292 3.01956 3.01621 3.44607 3.69935 2.9023 2.9023 2.9023 
2.9023 3.01959 3.28469 2.9023 3.01956 2.9023 2.9023 2.9023 3.01959 
3.28469 3.38579 3.27243 2.9023 3.01624 3.12923 3.01956 3.19583 2.86186 
3.06521 3.31482 3.01624 2.94719 3.28469 2.9023 2.9023 2.9023 2.9023 
3.01959 3.01624 3.12923 3.27779 3.3702 3.27246 2.9023 3.01956 2.94292 
3.28469 3.31482 2.9023 2.82248 2.9023 2.94292 2.9023 2.9023 3.01956 
3.01624 3.12923 3.58784 3.27779 3.39163 3.48973 2.47119 2.70408 3.31482 
3.28469 2.70131 3.01956 2.9023 2.32646 2.57248 2.70129 2.9023 2.47119 
2.70408 2.9023 2.94714 2.9023 2.9023 3.01956 3.33479 3.33479 3.48973 
3.72237 3.34677 3.49619 3.33479 3.48973 3.6279 2.94715 3.58786 3.43735 
2.32645 2.03427 2.33075 3.41503 3.38579 2.57346 3.01956 2.1767 2.57344 
2.33075 2.83042 2.9023 2.9023 2.9023 3.01956 3.01624 3.01624 3.01624 
3.12926 2.83042 3.12923 2.57344 2.33075 1.85979 2.19261 2.03427 2.35098 
1.86115 2.83047 2.47122 2.74152 2.86187 2.94719 2.94294 2.85133 3.0529 
2.70131 2.9023 2.70411 3.01624 2.9023 3.19584 3.27247 2.94719 2.94719 
3.01624 2.47119 2.70408 2.7013 2.9023 2.32645 2.57248 2.9023 2.70129 
2.47119 2.70408 2.9023 2.94714 2.9023 2.9023 2.9023 2.9023 2.94292 
2.72681 2.9023 2.82248 2.83042 2.72681 3.01956 3.01958 2.82248 3.01624 
2.47119 2.33075 2.72681 2.57344 2.70129 2.82248 2.1767 2.1767 2.34562 
2.03795 2.19261 2.35108 2.47123 2.57346 2.70131 2.33079 2.9023 2.83047 
2.9023 2.94292 3.01956 3.01624 2.82248 3.01624 3.01624 3.12923 2.94292 
3.01624 3.01624 3.01956 2.9023 2.8513 2.9023 3.01624 2.94719 2.94292 
2.72681 2.9023 2.47119 2.70408 2.70131 2.82248 2.32646 2.47119 2.1767 
2.1767 2.1767 2.33079 2.86186 3.19583 2.94719 2.83047 3.01624 2.9023 
2.74151 2.9023 2.9023 3.01956 3.01624 3.01624 3.01956 3.01624 2.9023 
3.01956 2.86181 2.94719 2.33075 2.1767 2.1767 2.203 2.35109 3.01956 
2.9023 3.01624 3.20659 3.41502 3.37014 3.26549 3.31482 3.30478 3.28738 
3.38579 3.28469 2.9023 2.9023 2.9023 2.9023 2.9023 2.74146 2.94292 
2.83047 2.32645 2.47119 2.33075 2.1767 2.1767 2.1767 2.203 2.82244 
2.9023 2.94288 3.01956 2.85943 2.85124 3.21365 2.72675 2.82244 2.9023 
2.72675 2.9023 3.01621 2.94288 2.85124 2.9023 2.94288 2.94712 2.47116 
2.70408 2.70126 2.9023 2.82244 2.47119 2.33076 2.32642 2.57346 2.70131 
2.57248 2.32645 2.1767 2.1767 2.32645 2.32645 2.1767 2.32645 2.1767 
2.32645 2.57248 2.33075 2.57346 2.32645 2.57248 2.32645 2.47119 2.72681 
2.70408 2.85132 2.73953 2.86349 2.70129 2.82248 2.94719 2.94295 2.85956 
2.9023 3.01959 2.86187 2.57344 2.32645 2.57248 2.33075 2.1767 2.1767 
2.1767 2.1767 2.1767 2.57346 2.33075 2.82244 2.82244 2.83047 2.9023 