# vtk DataFile Version 3.0
vtk output
ASCII
DATASET POLYDATA
POINTS 818 float
-107.8 -121.822 60.8895 -112.667 -115.924 56.4142 -106.807 -115.934 60.7718 
-106.184 -120.374 52.9926 -106.709 -112.311 59.2507 -105.615 -115.805 50.4441 
-101.876 -113.667 61.1681 -99.2061 -116.849 52.0718 -102.931 -119.067 63.1499 
-101.977 -123.832 55.5185 -99.6281 -126.499 63.6364 -98.3098 -117.975 63.5065 
-96.2438 -121.795 54.8512 -94.7185 -121.675 65.7759 -92.8693 -125.658 57.892 
-91.8061 -127.76 65.5278 -88.7081 -122.214 67.8516 -85.9977 -125.922 59.9665 
-83.6135 -128.559 68.5904 -81.5627 -122.982 71.031 -78.092 -126.81 63.5414 
-76.413 -127.861 71.5166 -75.9427 -118.968 72.4755 -71.9106 -122.022 64.1587 
-72.4927 -120.353 74.709 -68.2379 -124.665 68.0941 -70.5748 -125.716 75.3296 
-68.4631 -118.156 76.5336 -62.8292 -122.619 70.9516 -64.4359 -122.327 78.8365 
-64.1802 -114.367 78.7684 -57.5006 -118.269 73.9517 -59.2141 -116.924 81.6491 
-60.7628 -110.486 81.1217 -53.3616 -113.053 77.3223 -54.9444 -109.662 82.7473 
-60.5559 -104.909 79.5185 -52.9814 -106.294 74.2841 -53.8797 -102.229 82.4297 
-59.009 -101.362 80.5525 -51.591 -101.074 76.205 -55.4699 -93.9264 81.0367 
-61.8777 -98.6807 77.3743 -54.0126 -98.7655 71.6374 -62.2529 -93.0505 77.1625 
-54.5424 -91.396 72.8018 -60.1035 -86.3932 77.2998 -66.0446 -87.7176 73.8422 
-58.9534 -84.9693 68.7049 -65.3581 -80.6404 73.582 -71.2657 -82.742 70.5155 
-65.0928 -79.2838 64.4267 -71.3595 -75.8506 70.2963 -76.1906 -78.4834 68.1207 
-70.8344 -74.588 62.1116 -78.018 -72.5891 66.9482 -79.3032 -77.8043 66.3541 
-74.4328 -74.0433 59.0823 -83.3301 -76.6425 64.741 -80.0008 -71.6984 57.9711 
-85.9419 -71.1337 63.6711 -88.9594 -76.4505 62.621 -87.0324 -71.2389 55.7527 
-93.833 -71.7809 60.1517 -91.6294 -79.2931 60.5231 -89.0481 -76.4689 51.6208 
-96.1043 -78.6988 59.5359 -94.2193 -74.8002 51.4294 -100.764 -74.691 56.8659 
-100.947 -81.4496 57.5005 -99.8803 -78.8299 48.7822 -106.939 -79.1213 54.041 
-102.962 -85.1746 56.4787 -101.439 -83.4292 47.2068 -106.714 -86.6172 55.6047 
-107.015 -84.749 46.8552 -112.788 -85.3729 53.3311 -109.295 -91.4173 55.4156 
-110.314 -90.6366 46.2671 -117.005 -92.6413 52.9853 -110.941 -97.9651 55.3041 
-111.245 -98.3038 45.8745 -117.373 -100.227 53.3571 -111.764 -102.925 55.7723 
-112.886 -105.007 47.1255 -115.52 -108.763 54.357 -109.476 -107.384 57.1632 
-109.242 -110.466 48.4944 -104.971 -108.443 58.6522 -101.692 -110.748 49.4907 
-97.767 -109.98 61.8002 -93.9928 -111.547 52.6732 -96.2516 -113.982 63.1636 
-92.8791 -115.948 53.9569 -92.3318 -117.055 65.2507 -89.1879 -119.447 56.064 
-90.8788 -112.285 64.9801 -87.1464 -113.313 55.76 -86.6195 -118.487 67.6035 
-83.0936 -120.715 58.5149 -81.312 -118.493 69.8126 -77.3012 -120.687 60.9189 
-77.2976 -112.553 70.43 -73.6515 -114.063 61.2416 -72.5004 -114.512 72.8018 
-68.1553 -116.461 64.0084 -70.7699 -116.322 74.2088 -65.8976 -119.353 66.0187 
-67.0911 -113.199 75.7687 -61.4544 -115.476 67.8287 -63.0612 -109.103 77.7582 
-56.0891 -111.27 70.9252 -63.6265 -104.575 76.2732 -56.6803 -105.845 69.1924 
-65.1535 -99.9992 73.9781 -59.1715 -101.26 66.0645 -65.1738 -94.3164 73.434 
-58.0088 -93.8915 66.4711 -68.6081 -89.3616 70.9584 -62.6277 -88.4144 63 
-71.8933 -86.3192 69.0031 -66.7746 -85.7554 60.4309 -76.504 -83.451 66.5877 
-71.508 -82.2485 58.0089 -81.4967 -80.2465 64.4121 -77.0102 -78.6461 55.6195 
-86.3574 -79.2244 62.4973 -82.964 -77.2604 53.298 -88.9716 -84.8377 61.3782 
-85.357 -85.6347 52.0885 -93.0652 -82.7784 59.5489 -89.9664 -82.0509 50.069 
-97.1429 -82.5971 58.3593 -94.2529 -81.427 48.8577 -99.1348 -86.7821 57.4231 
-96.0001 -86.6389 47.9282 -104.351 -89.7393 56.0185 -102.374 -89.7452 46.2157 
-106.467 -94.9757 55.6979 -104.759 -95.5005 45.8589 -104.778 -98.856 56.5841 
-101.744 -100.362 47.1753 -107.38 -102.928 56.4373 -105.035 -104.769 46.8921 
-103.878 -103.856 58.0756 -99.7584 -105.844 49.1833 -99.9005 -104.454 59.8724 
-95.8654 -106.166 50.8843 -94.0616 -105.19 62.9201 -89.8181 -106.412 53.9479 
-88.2999 -106.108 65.5011 -84.6591 -107.178 56.2491 -88.7377 -100.282 64.4026 
-85.0627 -101.943 55.2518 -83.8969 -102.402 66.6089 -80.5087 -103.828 57.309 
-84.527 -108.89 67.2088 -80.9369 -109.816 57.9216 -84.3811 -113.989 67.7579 
-80.6628 -115.18 58.5515 -80.2402 -106.534 68.5179 -76.8967 -107.819 59.1815 
-73.6763 -105.493 70.7545 -70.0058 -106.921 61.5627 -71.3844 -110.165 72.5302 
-66.9498 -111.888 63.7344 -67.0752 -106.578 74.0926 -62.0214 -108.466 65.6728 
-69.4565 -100.284 71.714 -65.3032 -101.76 62.7379 -68.4834 -93.9908 71.2149 
-63.9371 -95.0697 62.3737 -72.9828 -90.4899 68.6483 -68.9341 -91.4777 59.5581 
-76.6901 -87.3593 66.7354 -72.5543 -88.5031 57.7029 -81.4755 -85.8806 64.3623 
-77.5713 -86.9469 55.2179 -84.0956 -82.4412 62.9709 -80.4046 -82.2735 53.6785 
-85.2699 -90.3924 63.7132 -81.809 -92.3208 54.5315 -91.5529 -93.0547 61.7953 
-87.6409 -94.9752 52.7948 -94.6704 -87.2013 59.2028 -90.882 -88.2004 50.0023 
-98.1469 -91.4677 58.3161 -93.8955 -93.1962 49.4314 -102.335 -93.313 56.7267 
-98.8642 -94.3364 47.4042 -101.068 -98.1327 58.2248 -96.7391 -99.806 49.3673 
-97.1766 -100.899 60.5329 -92.6606 -102.379 51.7343 -96.7425 -95.6403 59.9446 
-92.3382 -97.3107 51.1235 -93.4825 -99.1002 62.1634 -89.2421 -100.712 53.2517 
-84.3605 -96.3232 65.3562 -80.8714 -98.1931 56.1732 -79.146 -99.8415 67.9057 
-75.8476 -101.393 58.5937 -73.7309 -96.924 69.3893 -70.1174 -98.4499 60.1907 
-79.0851 -92.5121 66.553 -75.5228 -94.275 57.3769 -110.639 -118.898 58.6681 
-107.766 -118.293 61.1061 -108.886 -115.5 59.6186 -108.86 -112.974 58.7184 
-106.747 -114.016 59.8956 -104.653 -112.777 60.0203 -104.401 -114.796 61.0038 
-102.301 -116.352 62.1896 -105.068 -117.496 61.9987 -105.194 -120.643 62.746 
-101.545 -121.432 63.9499 -103.944 -124.556 62.4752 -100.446 -118.602 63.3335 
-98.8098 -120.898 64.3203 -96.6324 -119.891 64.6417 -96.6446 -122.802 65.3457 
-93.5735 -123.987 66.2971 -95.5788 -127.297 64.6555 -91.8733 -121.843 66.6725 
-90.2198 -124.363 67.3461 -86.5397 -124.955 68.8639 -87.7614 -128.324 66.8489 
-85.1603 -122.89 69.457 -82.638 -125.544 70.5815 -79.1264 -124.647 71.9558 
-79.8395 -128.284 70.1885 -78.6098 -121.604 71.9118 -76.5358 -122.421 72.7974 
-74.1329 -119.933 73.6146 -74.6108 -122.615 73.8064 -72.1742 -122.068 75.1798 
-73.4855 -126.949 73.3823 -70.452 -119.376 75.6217 -69.749 -120.883 76.4146 
-67.2819 -119.321 77.7005 -67.5135 -124.168 77.1746 -66.2762 -116.403 77.6423 
-64.8189 -117.384 79.0208 -62.5631 -115.444 80.3562 -61.5977 -119.99 80.3471 
-62.3781 -112.477 79.9868 -60.1695 -113.294 81.839 -58.6181 -109.803 82.2502 
-57.0084 -113.357 82.4766 -60.5194 -107.677 80.3713 -58.5684 -106.455 81.4159 
-58.2672 -104.085 81.1071 -53.9235 -105.929 82.6723 -59.604 -102.84 80.0773 
-57.7635 -101.806 81.3704 -58.4542 -98.9239 80.7982 -54.3579 -98.2414 82.024 
-60.2048 -100.078 79.338 -59.971 -96.9106 79.3317 -61.8373 -95.6921 77.3716 
-60.31 -93.7834 78.9698 -61.7975 -90.3569 77.5147 -57.684 -89.9185 79.3461 
-63.9841 -90.5092 75.5058 -63.9203 -87.3035 75.655 -66.337 -84.5854 73.9144 
-62.6407 -83.3529 75.3731 -68.4349 -85.0506 72.2602 -69.0177 -81.9907 72.2496 
-71.7457 -79.6623 70.7201 -68.2815 -78.1357 71.941 -74.0125 -80.338 69.133 
-74.5252 -77.6596 69.2502 -77.1089 -76.3048 67.8713 -74.6296 -74.0592 68.6445 
-77.8617 -78.119 67.1077 -79.1412 -75.958 66.8156 -80.9427 -76.9892 65.7118 
-81.3417 -75.1005 65.9065 -84.4917 -74.534 64.6961 -81.8296 -71.5139 65.2514 
-86.232 -76.3723 63.6588 -87.937 -74.3847 63.4355 -90.9872 -75.4652 62.0296 
-89.977 -71.2499 62.0138 -90.5105 -77.7487 61.4345 -92.7245 -77.1245 60.824 
-93.5773 -78.8259 60.1116 -95.2048 -76.6582 60.182 -98.2446 -77.1733 58.9693 
-97.4415 -73.0596 58.5223 -98.8497 -79.6153 58.4765 -101.081 -78.787 57.6477 
-103.18 -80.9626 56.6718 -103.903 -76.6983 55.2909 -102.079 -83.4558 56.8708 
-104.243 -83.2736 56.1644 -104.827 -85.7443 55.9737 -106.387 -84.3101 55.6161 
-108.636 -86.4651 55.2831 -109.931 -82.1236 53.6403 -107.989 -88.6717 55.4788 
-110.526 -89.1407 55.1659 -112.046 -92.3773 55.1484 -115.251 -88.8738 53.0804 
-110.477 -94.6921 55.2903 -113.101 -95.8047 55.0329 -113.566 -98.7029 54.9734 
-117.665 -96.4504 53.0497 -111.633 -100.595 55.4294 -113.537 -101.648 55.2473 
-112.849 -104.95 55.8402 -116.594 -104.446 53.8131 -110.613 -104.985 56.345 
-111.712 -107.83 56.6021 -110.439 -110.63 57.5533 -114.243 -112.571 55.0956 
-108.14 -110.247 58.2331 -107.267 -107.667 57.7608 -105.907 -110.583 58.9482 
-103.356 -111.273 59.9309 -101.446 -109.377 60.1975 -100.035 -111.752 61.2716 
-96.7626 -112.241 62.6116 -98.8011 -113.862 62.21 -97.3633 -115.742 63.1586 
-99.9329 -115.906 62.4452 -95.5408 -117.374 64.2281 -94.3812 -115.284 64.1202 
-93.9517 -113.22 63.8745 -91.5631 -115.123 65.1136 -88.7305 -115.683 66.2655 
-89.47 -117.624 66.3574 -87.4067 -120.104 67.8161 -90.4415 -119.412 66.5605 
-93.6044 -119.248 65.4907 -84.2214 -120.707 69.2719 -83.7406 -118.818 68.8562 
-81.3038 -120.448 70.436 -78.8235 -118.761 71.0923 -79.4846 -116.067 70.1257 
-76.5444 -116.073 71.4602 -74.3985 -113.834 71.8286 -74.0523 -116.108 72.5238 
-71.4802 -115.62 73.6091 -72.9883 -117.368 73.4154 -71.5829 -118.007 74.4643 
-69.5026 -116.897 75.2899 -69.1211 -115.279 74.9284 -67.5459 -115.58 76.2462 
-65.4062 -113.626 77.2992 -64.7058 -111.02 76.8942 -63.5492 -111.535 78.2506 
-62.1688 -109.567 79.1568 -62.0751 -107.187 78.3974 -61.3822 -102.112 78.3427 
-62.3622 -104.718 77.6116 -62.8601 -101.873 76.6503 -64.3508 -102.546 75.164 
-63.6675 -99.3633 75.318 -64.927 -96.9484 73.7624 -63.5251 -96.597 75.2616 
-63.8201 -93.8837 75.1879 -65.6346 -91.318 73.4601 -66.7971 -91.7126 72.1305 
-67.5645 -88.6606 72.0872 -69.6651 -86.2968 70.783 -70.3906 -87.4214 69.9035 
-71.6044 -85.1125 69.4676 -73.7896 -85.0411 68.0033 -73.8494 -83.127 68.4344 
-76.2299 -80.9691 67.4175 -78.1761 -80.3779 66.2592 -79.1306 -81.8179 65.3791 
-80.2197 -79.1359 65.41 -82.4417 -78.4791 64.468 -83.7724 -79.4949 63.4599 
-84.9181 -78.1988 63.4618 -87.7412 -77.9919 62.4241 -89.2165 -79.3605 61.4311 
[...]
POINT_DATA 818
FIELD FieldData 1
MedialIndex 1 818 int
0 1 2 2 3 3 4 4 5 
5 6 7 7 8 8 9 10 10 
11 12 12 13 14 14 15 15 16 
17 17 18 19 19 20 21 21 22 
23 23 24 25 25 26 27 27 28 
28 29 30 30 31 32 32 33 34 
34 35 36 36 37 37 38 39 39 
40 41 41 42 42 43 44 44 45 
46 46 47 47 48 49 49 50 51 
51 52 53 53 54 55 55 56 56 
57 57 58 58 59 59 60 60 61 
61 62 62 63 63 64 64 65 65 
66 66 67 67 68 68 69 69 70 
70 71 71 72 72 73 73 74 74 
75 75 76 76 77 77 78 78 79 
79 80 80 81 81 82 82 83 83 
84 84 85 85 86 86 87 87 88 
88 89 89 90 90 91 91 92 92 
93 93 94 94 95 95 96 96 97 
97 98 98 99 99 100 100 101 101 
102 102 103 103 104 104 105 105 106 
106 107 107 108 108 109 109 110 110 
111 111 112 112 113 113 114 114 117 
116 115 119 118 121 120 123 122 124 
126 125 128 127 130 129 132 131 134 
133 136 135 138 137 140 139 142 141 
144 143 146 145 148 147 150 149 152 
151 154 153 156 155 158 157 160 159 
162 161 164 163 166 165 168 167 170 
169 172 171 174 173 176 175 178 177 
180 179 182 181 184 183 186 185 188 
187 190 189 192 191 194 193 196 195 
198 197 200 199 202 201 204 203 206 
205 208 207 210 209 212 211 214 213 
216 215 218 217 220 219 222 221 224 
223 226 225 227 229 228 230 232 231 
234 233 236 235 238 237 240 239 242 
241 244 243 245 246 248 247 249 251 
250 253 252 255 254 256 257 259 258 
260 262 261 263 264 265 267 266 269 
268 271 270 272 273 275 274 276 278 
277 280 279 281 282 284 283 285 287 
286 288 289 291 290 293 292 294 296 
295 297 299 298 300 302 301 303 304 
306 305 307 309 308 311 310 312 313 
314 316 315 318 317 319 321 320 323 
322 325 324 327 326 329 328 331 330 
332 334 333 335 336 337 338 340 339 
342 341 344 343 345 347 346 349 348 
350 352 351 353 355 354 357 356 358 
359 361 360 362 364 363 365 367 366 
368 370 369 371 372 373 375 374 377 
376 379 378 380 381 382 384 383 386 
385 387 388 389 391 390 393 392 394 
396 395 397 399 398 401 400 402 403 
405 404 407 406 408 410 409 412 411 
413 415 414 417 416 419 418 420 421 
422 423 424 426 425 427 428 429 431 
430 432 115 116 118 119 120 121 122 
123 124 126 127 128 129 130 132 133 
134 136 137 138 140 141 142 143 144 
146 147 148 150 151 152 154 155 156 
158 159 160 162 163 164 166 167 168 
169 170 172 173 174 176 177 178 180 
181 182 184 185 186 187 188 190 191 
192 194 195 196 197 198 200 201 202 
204 205 206 207 208 210 211 212 214 
215 216 218 219 220 222 223 224 226 
227 228 229 230 231 232 233 234 235 
236 237 238 239 240 241 242 243 244 
245 246 247 248 249 250 251 252 253 
254 255 256 257 258 259 260 261 262 
263 264 265 266 267 268 269 270 271 
272 273 274 275 276 277 278 279 280 
281 282 283 284 285 286 287 288 289 
290 291 292 293 294 295 296 297 298 
299 300 301 302 303 304 305 306 307 
308 309 310 311 312 313 314 315 316 
317 318 319 320 321 322 323 324 325 
326 327 328 329 330 331 332 333 334 
335 336 337 338 339 340 341 342 343 
344 345 346 347 348 349 350 351 352 
353 354 355 356 357 358 359 360 361 
362 363 364 365 366 367 368 369 370 
371 372 373 374 375 376 377 378 379 
380 381 382 383 384 385 386 387 388 
389 390 391 392 393 394 395 396 397 
398 399 400 401 402 403 404 405 406 
407 408 409 410 411 412 413 414 415 
416 417 418 419 420 421 422 423 424 
425 426 427 428 429 430 431 432 
