# vtk DataFile Version 3.0
vtk output
ASCII
DATASET POLYDATA
POINTS 818 float
-109.885 -120.763 53.5673 -118.468 -112.871 52.1421 -110.457 -114.531 52.5737 
-111.374 -115.838 42.7732 -111.868 -109.983 49.34 -113.071 -110.487 39.7924 
-104.16 -111.251 47.0025 -104.906 -111.733 36.7103 -104.5 -119.378 51.2412 
-105.718 -120.909 42.3038 -100.741 -130.025 52.3242 -98.9584 -117.868 46.832 
-100.075 -118.63 38.1453 -94.1684 -125.771 49.1811 -94.8013 -124.936 39.4225 
-91.4828 -135.75 52.7001 -85.4124 -129.447 49.4454 -86.0158 -126.557 36.8093 
-78.525 -138.831 51.4707 -73.6425 -132.823 51.8214 -74.5371 -128.255 36.3894 
-67.0907 -139.499 51.0731 -66.33 -122.644 47.1762 -67.0204 -120.79 33.0723 
-59.9539 -127.463 50.0418 -60.5855 -125.758 37.8074 -56.2565 -136.287 53.853 
-53.7388 -122.146 50.5215 -52.749 -122.437 39.4296 -47.7577 -127.638 54.0913 
-48.2427 -114.363 51.9544 -45.5171 -115.936 40.8427 -42.5987 -116.916 53.6274 
-44.9765 -108.011 55.2178 -41.3573 -108.656 43.6373 -40.6039 -105.784 51.5341 
-46.0686 -99.9612 54.5016 -41.0027 -99.8434 40.184 -39.699 -96.7097 50.5555 
-44.7572 -95.714 54.7304 -39.2653 -93.7621 42.942 -40.6004 -86.4505 51.441 
-47.7668 -91.8372 52.2199 -41.8783 -89.783 37.8718 -47.4495 -84.1862 53.7441 
-41.1307 -80.474 42.491 -43.724 -74.6246 54.9229 -50.592 -74.3635 51.686 
-46.5366 -70.1722 41.2347 -50.5593 -65.1573 55.5779 -58.4975 -66.143 50.7659 
-55.7348 -61.302 40.1575 -58.9009 -57.1315 55.8762 -66.2443 -59.4239 52.0143 
-64.2412 -55.1176 42.5966 -69.7237 -54.402 57.2856 -71.776 -58.9317 52.1361 
-70.6907 -54.6128 40.3173 -78.1263 -58.9564 54.7434 -78.2981 -52.6772 43.8861 
-82.0026 -54.1569 59.4044 -86.8213 -58.4829 55.3934 -88.169 -53.1714 46.7175 
-94.551 -54.3402 59.2989 -91.863 -61.9286 50.9926 -92.8574 -59.561 39.6839 
-98.5583 -60.7544 53.6915 -99.4369 -56.7885 43.5283 -105.175 -56.6152 57.9819 
-106.524 -64.0126 54.0748 -108.102 -61.4681 43.7203 -116.065 -60.5211 59.0114 
-109.42 -69.944 53.1369 -110.61 -67.7464 41.2848 -115.193 -71.2888 56.7849 
-117.911 -69.2795 45.8825 -125.27 -68.4213 62.8785 -119.161 -79.244 56.3804 
-122.495 -77.7718 45.5671 -130.439 -82.9683 59.243 -120.591 -90.0928 52.8612 
-123.131 -88.4458 42.3505 -127.854 -93.754 55.7591 -120.701 -97.7269 53.8007 
-124.076 -97.6414 43.3839 -124.519 -105.157 54.1399 -116.93 -103.791 51.4951 
-119.269 -104.513 40.4396 -109.469 -104.208 47.2661 -109.396 -104.04 35.5814 
-98.026 -105.362 47.0924 -98.5334 -104.902 34.9772 -95.9899 -111.202 46.1337 
-96.684 -110.667 34.7687 -90.5176 -116.227 46.3532 -91.4209 -115.736 34.9268 
-88.3901 -108.243 46.3714 -89.0314 -107.183 34.763 -82.469 -119.185 46.2776 
-83.2951 -117.656 33.5589 -74.7419 -119.868 46.2275 -75.0984 -117.873 33.0358 
-69.8753 -109.207 46.7073 -70.752 -108.467 33.7887 -62.6187 -112.886 46.5723 
-62.8167 -112.008 32.8703 -59.1377 -116.911 47.2806 -59.0335 -116.392 33.1987 
-53.8679 -111.747 47.6235 -52.8451 -111.071 33.3084 -48.5662 -105.581 50.0946 
-45.6501 -105.632 36.2901 -49.9712 -99.0643 48.8237 -46.3975 -98.5044 34.1253 
-53.1214 -92.9228 47.9351 -50.5506 -92.1244 32.7959 -51.7975 -84.6538 47.867 
-48.2999 -82.3646 34.3257 -56.2759 -76.8309 47.0529 -55.1893 -74.4864 33.7537 
-61.7159 -72.8438 48.2461 -61.736 -71.0901 34.4464 -69.2519 -69.1574 48.8119 
-68.5247 -65.9799 33.6499 -76.3607 -64.4667 50.0797 -76.4784 -61.4479 35.5977 
-83.6394 -63.1426 51.847 -84.9572 -60.0111 36.8722 -87.5963 -72.5134 49.6865 
-88.5037 -71.471 34.1009 -93.9306 -68.2686 49.6816 -94.8711 -66.6932 36.7362 
-100.062 -67.2524 50.7066 -100.722 -65.4829 37.6271 -102.115 -74.2832 50.7665 
-103.156 -72.442 36.4223 -110.16 -77.8 52.3603 -111.537 -76.569 38.5839 
-112.588 -85.5375 51.2964 -114.758 -84.0935 38.0514 -108.906 -91.0314 49.1056 
-110.006 -90.4661 36.2092 -113.591 -96.8335 49.2911 -114.546 -96.3444 37.3084 
-107.662 -97.5903 47.162 -106.982 -97.5729 34.9324 -101.312 -98.1671 47.4375 
-101.548 -97.9431 35.0165 -92.9278 -99.2379 47.8514 -92.891 -98.3424 35.2774 
-84.997 -100.536 47.6645 -85.8177 -99.5435 35.6187 -85.902 -93.0932 48.5215 
-86.6093 -92.8475 36.4217 -79.2255 -95.8434 48.1666 -80.3625 -95.2776 35.8011 
-79.8499 -104.071 47.1543 -80.7335 -102.915 35.4051 -79.4969 -110.703 46.3733 
-80.1579 -109.79 34.3889 -74.1733 -101.093 47.4317 -75.4015 -100.329 34.7912 
-65.4145 -99.7588 47.2176 -66.1429 -99.2299 34.1987 -61.7827 -106.047 46.7218 
-61.6644 -105.6 32.2117 -55.6594 -101.414 46.9783 -54.6653 -101.397 32.5678 
-59.8529 -93.2332 47.7185 -60.0718 -92.6031 32.2556 -57.6348 -84.3304 47.426 
-58.0947 -83.7328 32.7448 -64.81 -80.0198 47.8749 -65.4781 -79.0852 32.2106 
-70.2816 -75.9283 47.9283 -70.6604 -75.191 32.2995 -77.0948 -74.0595 48.8022 
-77.9039 -73.1398 32.6035 -80.7243 -68.8638 49.9622 -81.9068 -66.7258 34.1061 
-82.0568 -80.4848 49.2908 -83.2012 -80.4499 34.5825 -90.3586 -83.8482 49.3227 
-90.6985 -83.8865 35.5452 -95.5334 -75.5717 49.2696 -95.9611 -74.7337 34.7023 
-99.7714 -81.5447 49.0121 -99.7253 -81.3934 35.1844 -105.775 -83.6966 49.8733 
-106.524 -82.7051 35.8799 -103.342 -90.0418 48.1457 -103.185 -89.7653 33.1422 
-97.6522 -93.7015 48.0628 -97.3483 -93.2005 35.9108 -97.3613 -87.01 48.8149 
-96.9968 -86.7453 34.7674 -92.4971 -91.5398 48.4702 -92.4552 -91.189 35.9234 
-80.3409 -88.1041 48.3473 -81.2919 -88.0889 35.4221 -73.1489 -92.5974 47.541 
-74.3597 -92.1411 35.109 -66.0504 -88.9048 48.0912 -66.8903 -88.3756 33.7184 
-73.5593 -83.2204 47.8033 -74.6583 -83.1104 32.7005 -114.811 -116.576 54.0873 
-110.528 -116.981 55.0855 -113.517 -113.399 54.6875 -114.647 -110.744 52.3183 
-111.344 -112.197 50.5651 -108.462 -110.289 48.1762 -107.611 -113.203 48.9674 
-104.315 -115.359 48.4813 -107.625 -116.928 51.7955 -106.627 -120.817 54.4973 
-102.519 -123.014 52.0545 -105.029 -125.205 52.2723 -101.607 -118.804 48.7148 
-99.4645 -122.919 49.7459 -96.6433 -121.585 47.7157 -96.8072 -127.124 51.708 
-93.1978 -130.722 52.8495 -96.1984 -133.192 52.5399 -90.2293 -127.173 48.8706 
-88.4166 -133.069 54.436 -81.6953 -134.977 55.3324 -85.0461 -138.325 51.7807 
-79.4984 -131.643 50.7232 -76.1815 -136.322 56.2821 -69.819 -135.98 56.4001 
-72.559 -139.4 51.6016 -69.4142 -130.564 49.9002 -66.0317 -133.203 52.5109 
-62.9809 -126.031 48.5227 -62.9293 -133.327 53.5436 -58.902 -131.421 53.2947 
-61.8653 -138.838 52.8605 -56.8703 -124.794 50.227 -55.1474 -128.07 53.1921 
-51.4068 -124.321 53.751 -51.8462 -132.09 54.4078 -50.6495 -118.437 51.1055 
-48.263 -119.956 54.3763 -45.8504 -115.866 54.9808 -44.3106 -122.815 53.8842 
-46.3062 -111.094 53.2709 -43.8121 -111.996 55.4546 -42.8971 -106.802 55.2279 
-41.6326 -111.172 52.9504 -45.4044 -103.871 55.0439 -43.5073 -102.131 55.3701 
-43.6115 -99.0198 54.9393 -40.0627 -101.052 50.522 -45.3743 -97.394 54.959 
-43.3136 -96.3229 53.9076 -43.9425 -92.8352 54.3209 -39.7987 -91.9946 50.8657 
-46.159 -94.0256 54.5803 -45.6333 -90.1334 54.9046 -47.4518 -87.9251 53.0349 
-45.5861 -85.9672 55.4958 -46.75 -80.6723 55.4842 -41.9231 -80.4553 53.2938 
-48.9941 -79.7645 52.8713 -48.8977 -75.3883 55.4738 -51.4289 -70.3837 54.7337 
-46.8038 -69.4989 55.0921 -53.5707 -69.3768 50.7686 -54.9711 -65.7663 54.3388 
-58.9422 -61.9317 54.0027 -54.4244 -60.8523 55.4614 -62.7359 -62.2257 51.1062 
-63.3743 -58.9284 54.2748 -67.7495 -57.4972 55.0574 -64.2095 -55.0037 56.3907 
-69.2568 -58.9935 51.8066 -71.1244 -57.5153 55.5002 -74.364 -58.6809 53.7132 
-74.5768 -57.6083 56.8873 -79.4069 -57.6283 58.5284 -75.6313 -53.9756 58.3048 
-82.531 -58.8958 55.5898 -84.8338 -57.7211 59.2295 -89.9816 -58.1512 57.8129 
-88.4002 -54.2098 59.4842 -89.8215 -59.4126 52.9034 -93.3049 -58.7006 54.594 
-94.7857 -61.0064 52.1729 -96.9068 -58.8987 56.4935 -101.314 -59.5491 56.8697 
-99.9283 -55.5905 57.8609 -102.849 -61.8122 54.4028 -106.149 -60.707 57.6207 
-110.324 -62.8 57.1408 -110.913 -57.908 58.9071 -108.403 -67.0123 53.1761 
-112.278 -65.9645 55.6782 -112.658 -70.1977 54.4521 -115.18 -67.3151 57.7489 
-117.732 -70.7646 60.4526 -119.6 -64.4587 60.2253 -116.654 -74.8824 57.4665 
-120.828 -75.6736 61.634 -124.337 -81.2655 59.0559 -129.546 -76.2106 63.3289 
-120.986 -84.6782 54.1584 -124.568 -87.1754 56.5216 -124.024 -91.7234 55.3774 
-129.361 -88.4897 57.0613 -121.063 -94.2468 53.1478 -123.096 -95.9648 55.4794 
-121.227 -100.572 56.0711 -126.321 -99.4287 55.2314 -118.496 -100.455 53.1044 
-119.146 -104.592 55.1618 -117.211 -108.034 53.3872 -121.503 -109.234 52.2846 
-114.5 -107.425 50.1491 -113.427 -103.64 48.8277 -110.858 -107.443 48.1208 
-106.607 -107.908 47.2752 -103.62 -104.93 46.8624 -101.45 -108.164 46.7536 
-96.6653 -108.538 46.3659 -99.651 -111.183 46.3369 -97.6454 -114.084 45.9738 
-101.153 -114.437 47.0335 -95.0773 -116.862 46.2275 -93.3563 -113.207 46.2313 
-92.6822 -109.834 46.3663 -89.3759 -112.733 46.3431 -85.4576 -113.507 46.1969 
-86.5257 -117.26 46.3016 -83.4698 -123.396 46.7502 -87.9175 -121.313 46.5643 
-92.3755 -120.636 46.929 -78.4953 -125.739 47.2823 -78.2321 -120.311 46.3802 
-74.0714 -125.772 47.3209 -70.9079 -121.23 46.6219 -72.4943 -114.896 46.0018 
-68.2179 -115.28 46.2521 -65.6026 -111.471 46.531 -64.4958 -115.735 46.6955 
-60.6107 -115.227 46.9576 -62.2982 -118.842 47.2268 -59.5663 -120.913 47.9501 
-56.5134 -118.692 48.3252 -56.6951 -115.149 47.5306 -53.5246 -116.368 48.7261 
-50.6843 -112.897 49.4526 -50.7658 -108.399 48.8421 -48.532 -109.454 50.6249 
-46.8833 -106.51 52.1024 -47.2861 -102.935 51.4183 -47.2433 -96.2658 52.9839 
-48.0137 -99.4457 50.8288 -48.9911 -95.6719 50.0219 -51.4694 -96.3154 48.1174 
-50.5497 -92.2677 49.2147 -52.2656 -88.6504 47.9729 -49.7284 -88.4279 49.4838 
-49.1305 -84.3873 50.0568 -51.176 -79.9454 48.7825 -53.8753 -80.5412 47.4366 
-53.5108 -75.3655 47.9721 -56.611 -71.524 48.044 -59.0094 -74.0948 47.7856 
-60.4283 -70.3945 48.527 -64.9233 -71.3166 48.5407 -64.0649 -67.7427 49.2729 
-67.4816 -64.0097 49.6992 -70.8048 -63.2412 49.2521 -73.0713 -66.4952 48.5738 
-73.824 -61.7572 50.6715 -77.3345 -61.4186 52.0044 -79.7828 -63.6544 51.4189 
-81.1428 -61.4931 52.8908 -85.3684 -60.4842 52.719 -88.0421 -62.6328 51.2473 
[...]
CELL_DATA 1632
FIELD FieldData 2
Cell%20Jacobian 1 1632 float
2.16267 1.14247 1.36353 1.2444 2.58486 2.4185 1.23346 2.40799 2.52449 
2.16884 2.37383 2.35262 2.51902 2.39067 2.21841 2.31735 2.01804 1.25434 
2.10378 2.18336 1.2362 1.09899 2.15123 1.14615 1.81976 2.55575 2.40042 
2.34929 1.69925 3.20574 2.59124 2.94864 1.40099 1.32818 3.38994 1.45595 
1.62968 4.66057 3.62794 4.13371 1.74893 2.00904 4.99735 2.3719 2.04177 
3.66585 4.33357 3.6065 2.4708 2.43264 4.15869 2.69037 2.46152 5.01099 
3.99011 4.16864 1.72478 4.92627 4.94879 4.75166 1.9556 2.34016 4.48118 
1.91129 2.30566 4.2007 4.64042 4.33475 2.11274 1.8494 4.05707 2.21054 
1.85584 3.18385 3.78018 3.45107 1.75873 1.50065 2.70384 1.71393 1.33959 
1.69039 2.43674 1.73909 1.54997 1.61556 1.30413 1.47046 1.62952 1.28664 
1.27395 1.24154 1.53586 1.47099 1.20206 1.59963 1.47764 1.25624 1.18339 
1.27704 1.46051 1.57173 1.36822 1.49906 1.42829 1.47541 1.11389 1.16182 
1.63126 1.577 1.48211 1.51982 1.79203 1.79156 1.62053 1.71068 1.87113 
2.36662 1.75459 1.88267 1.83867 1.58394 2.35819 1.74592 1.61494 2.73482 
2.66673 2.73885 1.55814 1.71808 2.67899 1.69964 1.8771 2.70315 2.71327 
2.67588 1.73666 1.54118 2.69985 1.78697 1.53547 2.97454 2.76008 2.77636 
1.56785 2.59691 2.94412 2.64257 1.57019 1.59788 2.65371 1.63066 1.57799 
2.75842 2.62815 2.69422 1.60338 1.47255 3.03428 1.59703 2.03286 3.19755 
3.25309 3.27208 1.78696 2.74444 3.00489 2.98173 1.38131 1.36529 2.42446 
1.29989 1.44731 2.92967 2.26262 2.57223 1.52992 1.65075 3.23153 1.78114 
2.01615 3.58085 3.3847 3.44528 2.0361 3.51893 3.50008 3.37499 1.61414 
2.51974 3.84833 2.04045 3.20099 4.54691 4.08259 4.65604 3.50135 2.35848 
4.98982 3.21733 2.13949 3.22685 4.42951 3.87875 1.61634 1.48435 2.91638 
1.65674 1.4641 2.40227 2.58671 2.49848 1.41398 1.6127 2.45359 1.58487 
1.72004 2.59973 2.57023 2.53448 1.49129 1.04382 2.3538 1.25263 1.01967 
2.30681 2.28615 2.1509 2.44039 2.42444 2.61714 2.46338 2.3366 2.17038 
2.26051 2.22236 2.09056 1.9866 2.12303 2.06069 2.05788 2.0596 1.99966 
2.01638 2.09802 2.22816 2.11646 2.0802 2.12126 2.31993 2.29026 2.25332 
2.26719 2.12601 2.23249 2.28017 2.31345 2.01366 2.13756 2.11018 2.3513 
2.57846 2.02264 2.4292 2.84946 4.22826 3.2885 3.12669 2.70364 3.23708 
4.00389 3.45092 2.61601 2.52776 3.02787 2.55083 4.67818 3.71908 4.75227 
4.38553 4.50339 3.94096 3.75577 3.97795 4.59733 4.67283 3.93761 4.68929 
3.37317 2.21007 2.99544 2.98608 3.33867 2.45656 2.20265 2.45992 3.38158 
3.05785 2.65894 3.08092 4.16964 4.4431 3.44121 4.11051 4.48827 4.17924 
3.57266 3.99157 3.77079 2.97702 3.2845 3.33573 3.74605 3.10907 2.88724 
3.30944 2.76734 2.39541 2.57282 2.51846 2.4711 2.19744 2.36927 2.40648 
2.22466 2.26999 2.29335 2.35542 0.979806 1.43351 1.32793 1.34182 1.96278 
1.97342 2.03606 2.00426 1.87479 1.80948 1.87274 1.85579 2.06168 2.12117 
1.92744 1.9706 1.9974 2.14332 2.2392 2.20124 2.21768 2.68546 2.34958 
2.4656 2.90626 2.78826 2.52015 2.68994 3.05303 2.98104 2.92325 2.96291 
3.03737 3.10576 3.04989 3.16918 2.94124 2.82444 3.03622 3.03601 3.21985 
3.17573 3.07087 3.20395 3.10887 3.21358 3.05737 3.09416 2.97835 2.83652 
2.96654 3.03014 3.23675 2.91597 3.16666 2.96313 2.77177 2.64782 2.91194 
2.85632 2.75952 2.9033 2.8448 2.75369 3.03092 3.09194 2.90943 3.09805 
2.89804 2.44645 2.82241 2.74945 2.83315 2.60364 2.40688 2.61381 2.92952 
2.99611 2.66513 2.78433 2.844 2.75175 2.60679 2.82808 2.98931 3.23453 
2.9937 2.97492 3.22936 2.8998 2.90483 2.942 3.38444 3.44974 3.03586 
3.44589 3.43123 3.08958 2.93279 3.18719 3.62075 3.77483 3.29175 3.55813 
4.05121 4.19705 3.45296 3.7429 3.91612 3.12576 3.23835 3.48049 4.27502 
3.72123 3.28812 3.62501 3.11703 2.50266 2.85734 2.87476 3.03325 2.66082 
2.50726 2.6905 3.00371 2.85025 2.75703 2.79874 2.728 2.7831 2.74729 
2.76523 2.71355 2.46723 2.66339 2.64055 2.30202 2.13261 2.51646 2.32443 
2.16183 1.92069 2.11054 2.07472 2.14177 1.90468 1.87353 1.96638 1.70207 
1.60332 1.64973 1.6385 1.70945 1.66268 1.60535 1.66282 1.90036 2.04553 
1.89142 1.93177 1.57436 1.59488 1.61448 1.5831 1.59324 1.59652 1.60633 
1.59501 1.60782 1.60847 1.60127 1.60183 1.60661 1.60186 1.60658 1.61077 
1.5856 1.60883 1.5757 1.57361 1.65667 1.74421 1.57951 1.65513 2.01299 
2.63346 2.12229 2.12369 2.84783 2.90073 2.24087 2.79769 2.77522 2.14464 
2.14897 2.19233 1.75958 1.57679 1.74979 1.75717 1.73599 1.60331 1.60882 
1.60543 1.76301 1.61936 1.60518 1.6194 1.77141 1.82187 1.62916 1.74793 
2.01627 2.24507 2.01319 2.0707 2.33513 2.42901 2.07234 2.29626 2.63131 
3.00502 2.73222 2.73368 2.36551 1.97152 2.00921 2.05366 2.32404 2.2365 
2.00921 2.23208 2.15937 1.9816 1.98212 2.03402 2.22968 2.2101 2.09184 
2.15602 1.8781 1.80717 1.83593 1.82774 1.7557 1.78276 1.82095 1.81096 
1.885 2.12421 1.86318 2.00072 1.93061 2.2299 2.29743 2.10572 2.29198 
2.62738 2.38918 2.47246 2.76752 2.45656 2.44508 2.46614 2.85647 2.94591 
2.5126 2.86627 2.76829 2.34501 2.38708 2.48707 2.80369 2.72175 2.42201 
2.61919 2.53357 2.14765 2.2194 2.26542 2.6729 2.60308 2.19874 2.57466 
2.52183 2.31392 2.2264 2.32319 2.77363 2.72007 2.45829 2.60286 2.58898 
2.27884 2.31998 2.40384 2.06198 2.02907 2.18186 2.13357 1.91484 1.65034 
1.87483 1.78148 1.89625 1.62664 1.61592 1.63732 1.93923 1.91386 1.64408 
1.88412 2.21945 2.46161 2.16095 2.24731 2.49915 2.66093 2.2658 2.45256 
2.60708 2.534 2.20331 2.49439 2.40814 1.82189 2.05337 2.05941 2.45387 
2.05645 1.87226 2.06232 2.68949 2.87504 2.32598 2.64955 2.92905 2.78804 
2.35432 2.6216 2.63116 2.3306 2.23927 2.40565 2.06717 1.66239 1.98771 
1.89428 2.07299 1.96984 1.63189 1.90775 2.24954 2.47421 2.09229 2.28544 
1.75679 2.00173 1.83663 1.80355 1.59842 1.63421 1.59468 1.59989 1.62289 
1.63849 1.66617 1.65913 1.62401 1.63424 1.62384 1.63702 1.60423 1.59645 
1.62525 1.60457 1.58765 1.59469 1.58898 1.58692 1.60005 1.59206 1.59019 
1.6022 1.58368 1.59847 1.58794 1.5846 1.57547 1.56804 1.58909 1.57748 
1.58653 1.59303 1.57239 1.59286 1.58452 1.5519 1.56956 1.56748 1.57253 
1.58526 1.55025 1.57281 1.59139 1.60069 1.5983 1.59547 1.59028 1.59337 
1.59712 1.59593 1.61076 1.58975 1.56913 1.57888 1.61827 1.57786 1.58568 
1.59368 1.69467 2.00757 1.58073 1.67291 1.81947 2.1947 2.15693 2.16122 
1.81228 1.84295 2.19418 1.88231 1.6265 1.5789 1.66494 1.61375 1.58962 
1.74846 1.68508 1.66593 1.62316 1.84437 1.82013 1.75206 1.59002 1.58453 
1.57075 1.5685 1.63479 1.62879 1.60121 1.64131 1.67438 1.87425 1.65951 
1.67666 1.64315 1.99163 1.87741 1.86234 1.61881 2.02603 2.00219 1.89836 
1.60436 1.59579 1.58976 1.58807 1.60987 1.61298 1.59216 1.60602 1.61722 
1.60318 1.61112 1.61281 1.63627 1.86719 1.66637 1.65293 1.62768 1.61528 
1.62047 1.61186 1.72622 1.9675 1.65044 1.69059 2.12316 1.94844 1.7879 
2.06386 1.69178 1.72774 1.724 1.75917 1.62093 1.6351 1.55398 1.64757 
1.65902 1.56042 1.5715 1.56688 1.67243 1.85701 1.71081 1.71501 1.7332 
2.07301 1.95918 1.7687 1.64887 1.76166 1.98797 1.76469 1.88343 2.21253 
2.45747 2.05005 2.40987 3.19754 2.52093 2.93618 2.44973 2.70861 3.43149 
2.65822 2.82433 3.9208 4.28942 3.72276 3.03913 3.12183 3.68125 3.29875 
3.13388 4.19795 3.84985 3.58271 2.73473 2.53455 3.5332 2.70139 2.44383 
2.74094 3.42465 2.6909 3.15716 4.36017 4.36411 3.79252 3.06151 2.92752 
3.64566 3.15011 2.81848 3.26191 3.73714 3.34396 2.62998 2.40791 2.99798 
2.67689 2.20018 2.62372 2.79697 2.45885 2.00105 1.7059 2.06987 1.85109 
1.7086 1.84738 2.07885 2.01669 1.5092 1.43213 1.69711 1.47774 1.44984 
1.43531 1.58809 1.50148 1.41615 1.40843 1.43202 1.34636 1.40338 1.5258 
1.39722 1.46175 1.46439 1.62406 1.58961 1.61549 1.69044 1.68659 1.81059 
1.67919 1.81442 2.12891 1.90191 2.10116 2.1206 2.48921 2.47908 2.31383 
2.624 2.47853 2.48573 2.53161 2.75423 2.85402 2.6301 2.87007 2.98248 
2.259 2.48215 2.36351 2.97044 2.89124 2.24072 3.0462 2.9275 2.4052 
2.20139 2.33638 2.75129 2.64965 2.7199 2.76454 2.65537 2.6705 2.71745 
2.80495 2.76086 2.87522 2.76495 2.88263 2.67824 2.55273 2.8209 2.79672 
2.62892 2.57562 2.78629 2.59891 2.52138 2.29345 2.57702 2.50466 2.32384 
2.57186 2.48565 2.38728 2.58258 2.30955 2.25585 2.21002 2.49279 2.49698 
2.45822 2.63366 2.57208 2.9722 2.85058 2.82649 2.55614 2.54731 2.88901 
2.60645 2.51738 2.64119 2.72743 2.69737 2.96307 3.27838 2.51419 2.79943 
3.15822 3.23446 3.58025 3.51222 3.51844 3.43678 4.5091 3.80016 2.94072 
2.44123 2.65338 2.82698 2.32902 2.26052 2.44648 2.21533 2.08524 2.08259 
2.02068 2.16405 2.10774 2.17482 2.07773 2.1445 2.0788 2.00213 2.1802 
2.04817 1.97907 1.79986 2.07412 1.91695 1.90427 1.77512 1.84707 1.81369 
1.87873 1.71112 1.7868 1.83109 1.68752 1.69921 1.75682 1.71757 1.61377 
1.66687 1.67013 1.62159 1.66633 1.66572 1.65685 1.65195 1.72484 1.78692 
1.72024 1.72459 1.7042 1.57456 1.65371 1.69123 1.79573 1.72473 1.80384 
1.79475 1.71099 1.71904 1.81533 1.71622 1.69822 1.84219 1.79367 1.82299 
1.98734 2.15809 1.89525 1.9417 2.09063 1.93622 1.94897 2.05301 1.87918 
1.79933 1.91923 1.8435 2.20226 2.06118 2.29819 2.23265 2.01571 2.03878 
2.25422 2.03432 1.97614 2.33456 2.26272 2.2649 1.89931 1.81695 1.98007 
1.90464 1.86824 1.9081 2.00851 1.90651 1.88628 1.90228 1.94962 1.90596 
2.07591 2.53121 2.28833 2.22503 2.08268 2.48175 2.49737 2.38497 1.99536 
1.95695 2.37512 2.00432 1.95036 2.00995 2.28622 2.12365 1.90612 1.76037 
1.90845 1.7827 1.6106 1.53271 1.76976 1.72281 1.60547 1.57356 1.53672 
1.58931 1.48493 1.58344 1.43334 1.5475 1.64917 1.71182 1.68285 1.64951 
1.68076 1.65402 1.7934 1.727 1.69089 1.71284 1.75109 1.69685 1.83978 
1.96557 1.77911 1.82745 1.90738 2.22016 2.06582 2.15409 2.03632 2.08069 
2.32264 2.1062 2.11084 2.34098 2.36469 2.26466 2.13201 2.18495 2.29094 
2.17787 2.20715 2.22068 2.29206 2.22991 2.23334 2.36965 2.32578 2.27655 
2.19278 2.24762 2.38798 2.26651 2.13723 2.05998 2.22591 2.10546 2.09325 
2.35187 2.365 2.28557 2.0547 2.00352 2.28081 2.13536 1.95737 2.31286 
2.37365 2.13702 1.9353 2.09617 2.31782 2.10928 1.8455 1.8201 1.837 
1.79117 1.78033 1.82719 1.79791 1.85461 1.85555 2.06574 2.03043 1.9793 
1.8559 1.93182 2.08016 1.92636 2.03473 2.36169 2.24238 2.22238 2.06707 
1.91725 2.36073 1.9717 1.95929 2.26377 2.34986 2.29462 1.9285 1.91236 
2.19973 1.89677 2.15269 2.51015 2.32421 2.32983 2.18912 2.77403 2.66649 
2.58305 2.08479 2.03018 2.55685 2.16677 2.09819 2.23502 2.60102 2.31349 
1.98962 1.97599 2.03889 1.97002 1.93138 1.94466 1.96174 1.94712 1.91884 
1.95103 1.90996 1.93255 1.88859 1.84872 1.91736 1.90143 1.87795 1.7709 
1.87926 1.83185 1.84183 1.71531 1.73154 1.75235 1.66566 1.67089 1.67514 
1.6915 1.66644 1.68543 1.6877 1.68276 1.60235 1.6482 1.64263 1.6237 
1.65144 1.60589 1.64881 1.6483 1.65358 1.66058 1.65828 1.66096 1.60205 
1.64701 1.52773 1.59824 1.60686 1.58344 1.58225 1.56514 1.58797 1.61019 
1.62328 1.60448 1.60904 1.58314 1.63117 1.59967 1.53892 1.6283 1.57132 
1.58095 1.54114 1.66546 1.64841 1.61078 1.75428 1.82873 1.72003 1.72812 
1.80866 1.96221 1.91291 1.93658 1.76615 1.7664 1.89141 1.80254 1.67755 
1.57875 1.61411 1.6259 1.60803 1.61387 1.65299 1.59218 1.60706 1.63307 
1.7038 1.6296 1.63867 1.67543 1.70086 1.65372 1.77651 1.83576 1.81513 
1.80693 1.83471 1.83356 1.84829 1.85556 1.83582 1.86273 1.85011 1.84585 
1.82315 1.76753 1.82524 1.80443 1.70793 1.69579 1.77755 1.76059 1.69369 
1.62844 1.67873 1.62977 1.67935 1.59224 1.63422 1.59789 1.68591 1.68265 
1.63871 1.68873 1.69992 1.72745 1.80834 1.7297 1.77061 1.86857 1.8961 
1.86494 1.935 1.79038 1.85877 1.89208 1.90595 1.93557 1.84555 1.87402 
1.87636 1.89801 1.97571 1.9218 1.94668 2.08672 2.02143 2.02111 1.89719 
1.95001 2.0196 1.93602 1.96029 2.06474 2.1109 2.0229 1.94373 1.8603 
2.03018 1.93341 1.88053 2.04055 2.07336 2.02271 1.85623 1.90751 2.00676 
1.90122 1.92603 1.91693 1.99831 1.92098 1.88735 1.75511 1.82204 1.79396 
1.86292 1.78147 1.79901 1.84393 1.75243 1.69936 1.72709 1.68877 1.68382 
1.71486 1.7018 1.72691 1.67508 1.72094 1.73645 1.70335 1.75306 1.794 
1.76445 1.79821 1.7858 1.87034 1.79658 1.8559 1.76847 1.82441 1.87553 
1.82292 1.77117 1.72903 1.84505 1.7565 1.69598 1.74042 1.80901 1.78306 
1.82653 1.84596 1.90969 1.89699 1.81642 1.95843 1.86871 1.86739 1.74942 
1.88725 1.9366 1.88636 1.64725 1.81867 1.79803 1.70203 1.74755 1.64146 
1.76458 1.67659 1.70169 1.85153 1.80223 1.80569 1.62215 1.6207 1.68146 
1.58446 1.65395 1.58863 1.60394 1.60208 1.63464 1.74989 1.71538 1.66676 
1.75912 1.69717 1.77988 1.69066 1.66816 1.64791 1.70356 1.67381 1.65713 
1.63722 1.61842 1.64849 1.62763 1.61181 1.60867 1.64632 1.61406 1.59337 
1.62129 1.61262 1.61156 1.58978 1.60337 1.59407 1.58702 1.58794 1.60504 
1.59626 1.57962 1.60171 1.57014 1.5874 1.58895 1.60461 1.56859 1.59157 
1.61395 1.59749 1.58742 1.59039 1.62867 1.60352 1.59819 1.61126 1.62034 
1.59426 1.6383 1.60482 1.62384 1.67314 1.6554 1.65613 1.67925 1.76866 
1.6936 1.66112 1.80801 1.82336 1.71064 1.80125 1.78192 1.73509 1.67206 
1.67502 1.7386 1.63452 1.63756 1.65271 1.72716 1.64077 1.62481 1.61656 
1.76577 1.71778 1.63763 1.73047 1.61612 1.65278 1.70564 1.67892 1.67538 
1.71321 1.69345 1.74024 1.70365 1.7766 1.70784 1.69133 1.79172 1.87259 
1.6846 1.79123 1.88063 1.80931 1.67747 1.81463 1.62366 1.65456 1.59592 
1.61391 1.61334 1.6048 1.6114 1.61224 1.62746 1.59123 1.66835 1.63589 
1.66953 1.72624 1.71809 1.69112 1.78218 1.60832 1.69354 1.70515 1.75657 
1.66566 1.58861 1.62653 
Cell%20Area 1 1632 float
6.68191 9.22083 9.00486 7.29689 6.20347 4.99018 8.15875 7.28962 6.58945 
6.59748 4.6385 6.0994 8.21123 8.98138 7.78403 8.67271 6.38797 6.97639 
7.93881 10.1542 8.60046 10.7703 8.55576 8.24813 13.7051 8.03487 8.15659 
8.90365 13.0891 9.79209 8.3143 9.89953 12.963 9.69305 10.1348 10.115 
10.9757 18.297 12.1587 16.9546 14.4279 16.881 23.7533 18.4822 15.4723 
18.6373 19.6244 17.4693 16.4427 16.7943 17.9169 18.3531 18.2998 20.6149 
17.428 15.1323 10.5193 13.4929 19.3637 14.1494 15.7215 17.3081 11.4861 
12.2483 13.6365 9.67522 10.1333 11.691 16.3078 14.9599 12.0263 14.1869 
13.3122 10.3278 11.0226 11.6183 14.5416 11.2963 9.88181 11.6698 8.02791 
6.22337 8.1156 7.44266 9.07652 10.8279 4.8558 8.3543 10.4285 4.44606 
4.56799 5.00864 13.4629 12.5405 4.00271 9.14974 6.9613 1.59623 2.87767 
2.90352 11.5738 15.3712 2.66921 9.7257 11.5538 6.19157 2.73083 4.08329 
13.3984 5.27644 6.01789 5.97255 18.8335 15.8262 6.13298 14.2075 14.5748 
10.525 6.94127 8.94112 14.5166 11.852 10.4312 12.8137 11.7268 12.4386 
11.3051 11.5649 11.2158 11.872 12.102 11.41 11.6804 7.76659 11.9375 
10.3426 11.0234 9.55113 6.9781 9.07294 6.24556 4.70629 5.46313 6.34829 
7.04595 6.28693 5.27595 5.71697 11.2289 11.5487 8.7802 9.62654 9.73386 
8.33527 8.32307 9.66621 11.3472 13.0169 8.60855 10.591 13.6696 7.33044 
7.8479 8.71018 11.7471 7.59138 5.99571 7.43026 12.3617 10.0684 7.50152 
8.69262 9.56911 9.21863 7.4086 8.30275 11.408 14.3465 10.2141 11.5055 
12.8817 7.3299 9.17765 9.44794 13.1293 7.31117 7.74344 8.15609 15.3503 
23.1967 8.7473 14.1783 23.3269 14.5769 8.57641 13.8761 33.4794 23.849 
18.7152 27.9372 19.6357 13.0995 17.5196 15.2358 15.0732 12.0451 10.6769 
11.7188 9.09926 5.31098 8.39249 7.14731 11.853 14.335 6.27812 10.8084 
12.0494 8.09881 6.07909 8.43181 13.5782 10.0123 8.53604 9.87517 8.27145 
6.74681 8.72632 7.02429 5.44147 7.36513 8.2544 8.01251 5.00687 6.3414 
7.47005 5.73652 8.34933 8.60427 9.83542 8.10903 6.95214 4.89005 7.50628 
6.93576 7.43885 6.71706 5.31912 5.68777 7.17374 8.10358 6.73187 7.47876 
7.78968 5.46479 6.83969 7.10262 6.68526 8.85258 5.12892 6.55963 7.56329 
8.64405 9.18559 7.77369 8.82418 16.8165 9.56526 10.4863 10.5466 12.3381 
17.8853 14.7436 9.58014 8.74367 10.9487 9.74695 20.8334 11.7494 22.0614 
18.3166 18.4938 10.6354 11.8075 12.1767 18.394 21.5127 11.045 19.486 
15.6651 12.7497 11.1273 13.3041 13.4155 5.58271 11.1282 7.73724 10.5477 
4.12576 5.09649 6.65855 13.71 11.3101 6.05403 10.7905 10.6762 10.1646 
5.93167 9.94718 9.39615 7.57572 4.72726 5.85846 10.2933 9.05359 8.13788 
9.59719 7.85482 5.38019 8.09843 6.22841 7.59731 7.40268 4.89451 6.91382 
7.3019 7.64961 4.32254 6.93055 1.71232 5.31058 3.95675 4.14536 7.34197 
5.05087 7.22427 6.18161 7.42867 5.44942 4.84941 5.89654 7.74928 5.88262 
5.90209 5.58273 8.04433 7.53407 6.86257 8.32993 9.3464 12.8309 8.00083 
10.8476 12.289 7.19212 6.86427 7.65276 13.7463 12.9836 7.92161 11.3758 
10.3563 4.19312 6.93054 6.37032 11.4351 8.83251 4.955 7.82155 15.1086 
10.8776 12.2583 12.5877 7.98065 6.44875 9.41507 8.80281 6.90929 7.73272 
9.37706 7.32617 5.64027 6.90625 6.10295 7.43818 6.88088 4.59184 5.63863 
4.81897 7.87199 7.1468 5.18833 7.70198 6.99739 6.5584 6.02198 7.16976 
8.66524 11.9909 9.2818 8.88435 6.16669 3.62056 9.81636 6.21491 6.4218 
7.89351 4.48344 5.95781 8.08869 5.38337 5.23663 6.89332 8.49266 9.05337 
4.67736 7.55491 8.459 7.51042 4.92498 6.34455 9.13071 6.86046 7.70137 
8.85445 7.35894 8.11789 8.35952 7.74555 6.96509 7.43771 8.11412 9.00974 
8.56324 12.7669 8.5746 9.97596 13.0357 7.27447 9.25062 9.84994 15.6544 
14.1139 7.44386 11.8537 11.6518 7.54095 6.20104 8.50439 11.4124 7.69805 
8.42456 8.17273 10.5838 7.20963 6.80989 7.80558 6.65478 8.40859 6.5795 
7.75428 8.50445 7.13508 5.74558 5.89056 6.40083 4.34216 5.72783 5.21004 
7.32728 6.0467 4.53139 6.74337 9.68697 9.90188 8.64672 8.50628 7.52608 
8.32675 6.33051 7.68877 7.71803 9.05485 9.1218 7.3472 6.58638 4.89159 
7.80746 6.13358 6.30698 9.39023 9.28087 7.83023 6.18828 6.99815 8.93071 
7.40951 5.66891 5.84988 6.7486 6.32513 5.28719 6.27184 5.61913 5.9728 
5.4537 7.90232 6.55695 6.57227 8.76761 6.35274 7.04047 7.28208 10.9696 
10.1859 8.54548 9.01848 10.5069 9.12778 8.67509 11.9395 11.1629 14.2491 
9.4972 10.6529 10.4355 7.52614 6.9117 8.34122 9.68612 5.77817 7.08382 
7.30355 11.0524 10.0606 7.05518 8.40638 8.53117 5.1869 8.74112 6.50633 
9.75666 5.20625 5.87309 7.00577 6.46342 9.7407 7.14218 8.19506 5.197 
3.39647 7.45709 5.65495 10.3882 10.0115 6.77285 8.48477 10.1361 6.75575 
9.17423 7.70956 5.22903 4.09945 7.72873 5.58089 4.56473 7.07052 4.25714 
4.79213 4.11112 5.44814 7.13751 5.26794 6.46208 7.30747 8.36225 7.92265 
7.06111 8.78375 7.53629 8.48804 5.94198 4.91837 7.33978 5.88852 4.56295 
5.40984 6.64928 5.46619 6.43899 7.94257 7.86576 7.40061 6.85142 5.24934 
7.74291 6.89856 6.31675 6.70231 7.83731 7.91861 5.60994 8.7678 5.97493 
6.23783 6.88506 7.65578 4.79921 6.96271 9.68414 7.89815 8.71683 7.66499 
6.57328 2.70764 8.15604 6.27059 6.02851 6.47362 3.23062 5.22523 7.58028 
11.1415 3.6391 7.47757 9.22344 8.00329 3.04554 5.76483 11.313 7.14009 
9.2072 8.63686 12.666 11.3975 7.47099 9.61195 11.338 7.41139 10.8737 
8.95762 10.0463 3.69736 6.4738 5.4044 4.95471 6.25709 7.13524 6.47366 
5.41547 7.24969 6.35531 6.34761 6.44211 5.16769 6.15996 6.1305 7.39488 
5.32184 5.4755 5.51366 8.13859 8.89471 7.19512 7.47667 8.10313 6.11246 
6.13512 7.5827 5.28692 6.30979 5.85361 5.70391 4.44821 5.6203 4.32895 
4.45998 5.00355 4.90288 5.73074 5.51488 5.98947 5.73786 4.76979 6.20554 
6.80884 5.34724 6.32761 5.83051 3.68064 5.7529 6.53027 5.10668 3.81698 
5.83471 5.14211 4.93148 4.24736 4.93612 6.31298 5.32864 4.0857 4.84474 
4.98346 5.4928 3.83187 7.01337 4.69031 5.24891 7.526 7.18219 5.15615 
6.62527 7.02403 8.87763 5.27638 7.09021 7.72572 8.00623 10.2412 7.47861 
6.44856 5.73343 6.71846 6.62171 5.72641 6.81253 6.6084 6.24265 5.74496 
6.08188 7.29597 6.90561 5.5676 6.4792 5.30558 6.08312 9.19985 7.64288 
11.1882 9.38576 9.40426 9.40823 10.3817 9.23756 8.61511 8.83567 8.40406 
8.78869 8.92598 8.47783 8.46303 7.62925 8.94619 9.12194 8.62191 9.32843 
9.02398 7.13272 9.40093 9.06092 8.44318 9.6758 6.86499 8.55407 9.47899 
9.66488 7.52483 8.2237 8.19944 5.06949 8.29759 7.41509 8.79951 7.40472 
7.65345 7.30289 8.92141 6.9377 7.87221 8.37796 8.75025 9.25566 7.17783 
7.84756 7.59562 5.55662 7.88922 6.55738 7.58357 7.37461 5.93204 7.38689 
7.15533 11.1192 8.26995 8.72421 8.60753 5.05103 5.13213 6.21607 7.67283 
5.4016 4.66655 5.85333 9.58559 6.83493 6.22549 6.11256 4.47596 5.46817 
5.96432 5.52899 5.00494 5.17199 5.86888 4.68981 21.0885 20.2777 11.0936 
19.4641 15.7955 7.119 8.19569 10.3311 6.59007 8.06269 7.53081 8.3566 
8.67602 8.92663 8.73129 8.08806 9.91928 17.1784 9.6926 13.9134 11.2978 
24.4826 20.1238 17.3493 8.48265 9.34163 18.1475 9.62567 9.86688 11.8526 
21.6211 11.2248 13.7242 28.5307 26.897 27.4848 14.3122 16.0301 31.1749 