# vtk DataFile Version 3.0
vtk output
ASCII
DATASET POLYDATA
POINTS 115 float
-106.257 -120.981 59.0898 -110.125 -115.037 55.2699 -105.45 -117.87 56.5644 
-105.123 -114.062 54.7855 -100.499 -115.171 56.4384 -102.201 -120.908 58.8545 
-98.4124 -124.642 62.1907 -97.366 -119.386 58.6247 -93.5715 -122.818 61.2101 
-91.1608 -125.428 63.5106 -86.9724 -122.902 63.3198 -82.7192 -126.375 67.0513 
-79.2708 -124.344 67.0347 -75.9594 -125.49 69.7376 -73.9039 -120.218 68.1386 
-69.7975 -121.229 70.7451 -70.11 -123.933 73.1323 -65.5907 -119.676 72.7325 
-64.1663 -120.835 76.4525 -60.8275 -115.436 75.2609 -59.2047 -116.226 79.0027 
-57.3384 -111.431 78.054 -55.6437 -109.093 80.1747 -57.5122 -105.538 75.6167 
-54.5676 -102.671 79.6563 -55.9163 -102.176 76.8368 -56.0307 -95.0783 78.8372 
-57.8816 -98.6244 74.2697 -58.4458 -93.0743 74.1107 -59.9605 -87.7467 74.6894 
-62.6767 -86.6866 70.3084 -65.2275 -82.1557 70.98 -68.2891 -81.0296 66.8545 
-71.0092 -77.2202 67.7779 -73.8174 -77.2736 63.9688 -77.213 -73.9731 64.4643 
-76.9723 -76.0437 62.2782 -81.3873 -75.2364 60.4327 -85.1377 -72.5321 61.3273 
-87.5694 -74.8446 58.2817 -92.6776 -73.7408 58.5543 -90.2738 -78.2066 55.5254 
-94.7887 -77.2031 55.0705 -99.0155 -76.2766 55.2301 -99.7576 -80.71 52.7834 
-104.903 -80.8434 52.7004 -101.371 -84.9946 51.7218 -105.903 -86.7004 50.6321 
-110.901 -86.885 51.858 -108.91 -91.2926 50.4871 -114.782 -93.569 51.9669 
-110.962 -98.2581 50.1588 -115.122 -99.6854 51.5952 -111.146 -103.692 50.8893 
-112.899 -108.443 53.0771 -108.333 -108.028 52.3784 -104.031 -109.992 53.8208 
-95.5881 -110.813 57.2935 -94.5206 -114.792 58.5142 -90.5569 -117.902 60.5643 
-89.19 -112.997 60.2639 -84.9677 -120.099 62.9422 -79.3882 -120.263 65.3356 
-75.0603 -113.466 65.9578 -70.5344 -115.592 68.1502 -68.1221 -117.579 69.951 
-63.6058 -114.625 72.1588 -58.9271 -110.26 74.5961 -60.1855 -105.561 72.661 
-61.7165 -100.904 70.0248 -61.3503 -94.3513 69.695 -65.1852 -88.9634 66.9393 
-68.533 -85.8127 64.9473 -73.755 -83.3949 61.9818 -78.9836 -78.9706 59.991 
-84.6888 -77.6839 57.7386 -87.446 -85.2888 56.5157 -91.0714 -82.6334 54.6873 
-96.0851 -81.4114 53.4059 -96.9559 -86.3785 52.6488 -103.436 -89.6993 50.9823 
-105.787 -95.6304 50.5926 -102.795 -99.7846 51.8439 -106.034 -103.615 51.3652 
-101.717 -105.672 53.8917 -97.8626 -105.177 55.2721 -92.0941 -105.96 58.5426 
-86.421 -106.791 61.0074 -86.6441 -101.095 59.9638 -82.02 -102.746 61.9991 
-82.937 -109.185 62.5038 -82.6499 -114.214 63.0071 -78.9997 -107.586 63.7703 
-71.6806 -106.636 66.2104 -69.2262 -110.668 67.9438 -64.462 -107.796 69.755 
-67.5036 -100.805 67.0742 -66.0518 -93.8977 66.6378 -71.1329 -90.7963 63.8313 
-74.9823 -87.8744 62.0589 -79.3927 -86.5833 59.6816 -82.0235 -82.4928 58.2305 
-83.7016 -91.3554 59.029 -89.7183 -94.0928 57.3352 -92.6889 -88.1405 54.5408 
-96.2534 -92.0038 53.6405 -100.515 -93.8866 51.968 -99.2134 -98.8323 53.6597 
-94.8578 -101.917 56.1247 -94.7134 -95.943 55.4218 -91.2163 -99.9691 57.8455 
-82.4924 -97.286 60.868 -77.5502 -100.439 63.2392 -71.9571 -97.6875 64.7658 
-77.297 -93.5421 61.989 
POLYGONS 204 816
3 0 1 2 
3 1 3 2 
3 3 4 2 
3 4 5 2 
3 5 0 2 
3 5 6 0 
3 5 7 6 
3 7 8 6 
3 8 9 6 
3 8 10 9 
3 10 11 9 
3 10 12 11 
3 12 13 11 
3 12 14 13 
3 14 15 13 
3 15 16 13 
3 15 17 16 
3 17 18 16 
3 17 19 18 
3 19 20 18 
3 19 21 20 
3 21 22 20 
3 21 23 22 
3 23 24 22 
3 23 25 24 
3 25 26 24 
3 25 27 26 
3 27 28 26 
3 28 29 26 
3 28 30 29 
3 30 31 29 
3 30 32 31 
3 32 33 31 
3 32 34 33 
3 34 35 33 
3 34 36 35 
3 36 37 35 
3 37 38 35 
3 37 39 38 
3 39 40 38 
3 39 41 40 
3 41 42 40 
3 42 43 40 
3 42 44 43 
3 44 45 43 
3 44 46 45 
3 46 47 45 
3 47 48 45 
3 47 49 48 
3 49 50 48 
3 49 51 50 
3 51 52 50 
3 51 53 52 
3 53 54 52 
3 53 55 54 
3 55 1 54 
3 55 3 1 
3 55 56 3 
3 56 4 3 
3 56 57 4 
3 57 58 4 
3 58 7 4 
3 7 5 4 
3 7 58 59 
3 58 60 59 
3 60 61 59 
3 61 10 59 
3 10 8 59 
3 8 7 59 
3 10 61 12 
3 61 62 12 
3 62 14 12 
3 62 63 14 
3 63 64 14 
3 64 65 14 
3 65 15 14 
3 65 17 15 
3 65 66 17 
3 66 19 17 
3 66 67 19 
3 67 21 19 
3 67 23 21 
3 23 27 25 
3 23 68 27 
3 68 69 27 
3 69 70 27 
3 70 28 27 
3 70 30 28 
3 70 71 30 
3 71 32 30 
3 71 72 32 
3 72 73 32 
3 73 34 32 
3 73 36 34 
3 73 74 36 
3 74 37 36 
3 74 75 37 
3 75 39 37 
3 75 41 39 
3 75 76 41 
3 76 77 41 
3 77 42 41 
3 77 78 42 
3 78 44 42 
3 78 79 44 
3 79 46 44 
3 79 80 46 
3 80 47 46 
3 80 49 47 
3 80 81 49 
3 81 51 49 
3 81 82 51 
3 82 83 51 
3 83 53 51 
3 83 55 53 
3 83 56 55 
3 83 84 56 
3 84 85 56 
3 85 57 56 
3 85 86 57 
3 86 60 57 
3 60 58 57 
3 60 86 87 
3 86 88 87 
3 88 89 87 
3 89 90 87 
3 90 60 87 
3 90 91 60 
3 91 61 60 
3 91 62 61 
3 91 63 62 
3 91 90 63 
3 90 92 63 
3 92 93 63 
3 93 94 63 
3 94 64 63 
3 94 66 64 
3 66 65 64 
3 94 95 66 
3 95 67 66 
3 95 68 67 
3 68 23 67 
3 95 69 68 
3 95 96 69 
3 96 97 69 
3 97 70 69 
3 97 71 70 
3 97 98 71 
3 98 72 71 
3 98 99 72 
3 99 73 72 
3 99 100 73 
3 100 74 73 
3 100 101 74 
3 101 75 74 
3 101 76 75 
3 101 100 76 
3 100 102 76 
3 102 103 76 
3 103 104 76 
3 104 77 76 
3 104 78 77 
3 104 79 78 
3 104 105 79 
3 105 106 79 
3 106 80 79 
3 106 81 80 
3 106 82 81 
3 106 107 82 
3 107 84 82 
3 84 83 82 
3 85 84 107 
3 86 85 108 
3 85 107 108 
3 107 109 108 
3 109 110 108 
3 110 86 108 
3 110 88 86 
3 110 103 88 
3 103 111 88 
3 111 89 88 
3 111 112 89 
3 112 92 89 
3 92 90 89 
3 93 92 112 
3 93 112 113 
3 112 114 113 
3 114 98 113 
3 98 97 113 
3 97 96 113 
3 96 93 113 
3 96 95 93 
3 95 94 93 
3 112 111 114 
3 111 102 114 
3 102 100 114 
3 100 99 114 
3 99 98 114 
3 111 103 102 
3 110 109 103 
3 109 105 103 
3 105 104 103 
3 107 105 109 
3 107 106 105 

CELL_DATA 204
FIELD FieldData 1
TriLabel 1 204 double
0 0 0 0 0 0 0 0 0 
0 0 0 0 0 0 0 0 0 
0 0 0 0 0 0 0 0 0 
0 0 0 0 0 0 0 0 0 
0 0 0 0 0 0 0 0 0 
0 0 0 0 0 0 0 0 0 
0 0 0 0 0 0 0 0 0 
0 0 0 0 0 0 0 0 0 
0 0 0 0 0 0 0 0 0 
0 0 0 0 0 0 0 0 0 
0 0 0 0 0 0 0 0 0 
0 0 0 0 0 0 0 0 0 
0 0 0 0 0 0 0 0 0 
0 0 0 0 0 0 0 0 0 
0 0 0 0 0 0 0 0 0 
0 0 0 0 0 0 0 0 0 
0 0 0 0 0 0 0 0 0 
0 0 0 0 0 0 0 0 0 
0 0 0 0 0 0 0 0 0 
0 0 0 0 0 0 0 0 0 
0 0 0 0 0 0 0 0 0 
0 0 0 0 0 0 0 0 0 
0 0 0 0 0 0 
POINT_DATA 115
FIELD FieldData 2
Label 1 115 double
1 1 1 1 1 1 1 1 1 
1 1 1 1 1 1 1 1 1 
1 1 1 1 1 1 1 1 1 
1 1 1 1 1 1 1 1 1 
1 1 1 1 1 1 1 1 1 
1 1 1 1 1 1 1 1 1 
1 1 1 1 1 1 1 1 1 
1 1 1 1 1 1 1 1 1 
1 1 1 1 1 1 1 1 1 
1 1 1 1 1 1 1 1 1 
1 1 1 1 1 1 1 1 1 
1 1 1 1 1 1 1 1 1 
1 1 1 1 1 1 1 
Radius 1 115 double
3 3 5 5 5 5 3 5 5 
3 5 3 5 3 5 5 3 5 
3 5 3 5 3 5 3 5 3 
5 5 3 5 3 5 3 5 3 
5 5 3 5 3 5 5 3 5 
3 5 5 3 5 3 5 3 5 
3 5 5 5 5 5 5 5 5 
5 5 5 5 5 5 5 5 5 
5 5 5 5 5 5 5 5 5 
5 5 5 5 5 5 5 5 5 
5 5 5 5 5 5 5 5 5 
5 5 5 5 5 5 5 5 5 
5 5 5 5 5 5 5 
