# vtk DataFile Version 3.0
vtk output
ASCII
DATASET UNSTRUCTURED_GRID
POINTS 7833 float
3.9 30.8586 10.8462 6.51342 31.6972 8.10006 7.27888 33.6866 8.09988 
3.70022 36.3732 10.4771 10.8511 32.494 12.4997 8.90018 30.696 8.07464 
4.90002 33.8018 8.89338 6.79576 32.3242 8.10026 24.6644 52.1002 15.9796 
6.05404 29.0718 8.29996 13.6998 35.141 10.7611 5.09988 32.4748 8.63582 
12.1 21.8588 8.80974 13.7004 34.4922 10.2305 5.1002 29.5104 8.55402 
12.0076 32.505 8.7 9.79068 32.2258 12.9 6.5103 30.4456 8.09998 
11.5001 33.2762 8.34748 5.36868 34.0998 8.52094 9.30402 38.7686 14.2996 
11.7001 26.5712 12.4753 11.9 36.531 8.39782 19.2999 44.6408 9.8078 
9.81916 35.5388 13.5003 4.49988 35.5078 9.1543 7.47356 41.0686 8.50002 
5.4986 26.9928 12.1001 10.9 29.4794 12.3043 12.4996 33.715 11.8416 
4.70012 26.8292 9.38456 13.3004 35.864 9.21474 15.9002 40.3814 11.6492 
7.82524 31.4836 7.90018 13.8843 39.2528 9.09956 10.3943 31.8022 8.09998 
10.912 49.6526 14.9 5.50012 38.5624 8.94666 9.08198 25.4514 8.30002 
11.8969 28.1964 8.6999 12.789 33.8352 9.10012 10.083 33.898 13.1 
5.904 33.7548 13.1 3.69976 32.6918 10.0562 6.82282 36.211 8.29984 
14.1 37.5262 10.7792 4.81124 34.6998 8.8998 3.66132 34.3828 10.0997 
5.69988 35.6278 8.64124 5.08316 28.059 8.69962 7.18272 26.9394 8.30032 
4.1 28.6008 10.6761 6.27688 23.8268 9.2999 10.5954 30.9758 12.4997 
7.42978 29.6938 13.0998 13.0306 30.8886 10.8998 13.2997 34.2106 11.2365 
12.3032 35.8552 12.3003 13.2871 32.5568 10.8999 5.92108 32.341 8.2998 
5.29998 31.0888 8.47836 7.97548 34.352 13.5002 5.9 37.4308 13.6434 
5.41388 33.252 8.49988 7.84636 29.2246 8.10012 5.04066 37.0252 9.1003 
3.90742 38.3088 10.1001 4.50024 41.5962 9.93736 7.21818 47.9 9.35468 
6.28602 33.7288 8.3004 6.85352 34.9052 8.29996 9.54864 35.2116 7.90002 
15.0998 43.5654 8.5513 15.4777 52.091 8.09986 9.29924 38.4296 8.0999 
9.2268 29.853 12.9003 8.60628 26.759 13.1001 10.0656 21.5256 13.8997 
9.92282 28.854 8.3003 4.2224 33.5028 11.9002 11.8739 30.3528 8.69978 
4.61124 35.6908 12.7002 8.11122 35.588 7.90014 8.11848 37.2472 8.09954 
7.44654 39.0988 8.3003 11.1847 41.7154 8.09962 5.37144 31.5716 12.5004 
12.495 39.0532 13.3001 10.9755 44.0328 15.4999 13.6999 35.3374 9.85908 
13.9 36.5416 10.058 13.167 37.5026 8.9001 11.583 39.2534 8.3001 
13.1002 34.8354 9.1594 11.7612 34.741 8.49986 13.5003 36.3956 11.4284 
13.2999 37.9 12.2771 14.1002 39.7496 12.2999 14.8402 43.1226 14.4999 
13.1125 41.4078 13.9001 6.4795 44.4302 9.10044 6.13768 43.9136 14.0999 
10.152 45.5446 8.09966 11.1203 50.1964 7.89976 11.75 37.3994 13.1001 
4.1002 37.6646 12.1126 5.05684 40.7478 13.2999 11.9 31.5368 11.7992 
4.1001 31.549 9.20866 7.51046 32.1 13.2601 4.12878 34.1762 9.3002 
4.09996 33.1004 9.12862 13.0495 35.2276 11.6997 9.06906 32.0342 7.89972 
9.99074 33.311 7.89974 7.18372 31.7726 7.89996 7.98822 32.7024 7.90028 
7.19742 30.9464 8.10046 8.69394 33.979 7.9001 7.34688 30.0196 8.10024 
8.0047 30.6012 7.90006 20.854 46.1982 16.4999 19.5226 42.3002 14.0913 
9.82388 28.1176 12.9002 8.51392 29.8598 8.1001 9.59684 29.8672 8.1001 
8.857 28.8308 8.10026 9.40768 27.1762 8.29964 11.3451 25.9172 8.70028 
7.9324 27.952 8.10028 10.8429 29.7288 8.3 10.6266 23.6774 8.50034 
8.42046 20.5 9.33788 12.9899 24.1278 8.90008 14.3785 22.121 12.7 
13.7385 26.5444 9.49966 14.6999 24.4444 11.126 12.4425 35.5234 8.70018 
7.88646 36.5156 13.9005 12.0998 34.7486 12.1123 11.1006 35.3864 12.8999 
11.3466 33.726 12.5001 3.89034 39.8072 11.7 15.0189 41.2998 13.2247 
17.425 41.5894 13.0998 17.9 42.0408 10.1947 17.3582 43.4176 14.8997 
15.4892 47.935 15.0998 15.7852 45.4078 15.1002 12.9459 46.3564 15.7002 
18.003 46.9486 16.2999 19.246 52.1096 14.2998 20.2268 49.6858 16.6998 
22.6996 48.596 11.9641 23.7944 48.5214 16.6996 9.70044 36.8482 7.9001 
16.4603 47.7854 8.50012 19.5261 50.8802 9.69974 11.1382 32.383 8.29992 
11.713 31.443 8.50038 13.1 31.4846 9.3738 9.93546 30.8594 8.10002 
10.0022 46.864 15.4998 6.86838 49.0634 13.4999 6.93412 29.2058 8.09986 
6.68414 28.0404 8.3002 5.87162 27.0092 8.50006 6.49034 25.4208 8.70034 
5.07902 25.1 9.80174 6.3472 23.9306 12.5001 7.82302 24.3 8.6517 
7.629 22.3416 9.10008 6.49994 21.0706 11.5814 9.55292 22.0106 8.69998 
10.6968 20.0074 9.10026 15.1287 18.2542 9.8999 9.10802 16.5001 12.6821 
9.17906 17.9777 10.3 12.3018 15.6998 10.6305 13.1745 19.6098 9.09972 
14.9001 21.908 9.67238 13.4477 17.7041 15.3002 11.6076 17.7641 9.49986 
7.85672 18.9 12.4831 10.1002 18.6821 14.2525 12.498 20.161 14.2998 
15.5212 19.6325 14.1001 19.5853 44.2052 15.7 22.1002 44.891 12.8563 
10.7001 36.5844 13.4283 10.6047 38.0472 13.9001 10.9508 40.0936 14.3001 
8.28794 41.7174 14.8998 9.32478 36.8792 13.9001 14.5816 52.3 13.5024 
23.2772 53.4074 11.5001 18.7508 56.7192 9.7003 17.7761 49.5802 15.2998 
11.1567 15.9981 14.6997 10.7719 37.949 8.10026 3.89992 33.547 9.89206 
3.6999 33.7028 10.9581 3.69988 35.1638 11.416 3.79182 32.5 11.2888 
4.64852 32.4178 12.1001 4.50002 31.3018 11.7566 5.42038 29.3986 12.3 
4.5 30.0122 11.6237 5.61094 32.6972 12.7001 6.42232 31.8832 12.8997 
6.26762 30.477 12.7 6.70518 32.937 13.2998 7.8336 33.2158 13.2996 
8.93192 33.6732 13.3 8.67404 32.367 13.3 8.38478 30.9856 13.1 
7.14752 31.0492 13.1 6.91226 34.0146 13.5002 6.03688 35.3258 13.3001 
7.135 35.157 13.7003 6.67784 36.3118 13.6998 7.09228 37.4412 13.8999 
6.4085 39.3908 14.1001 8.34832 37.7156 14.0996 7.85472 39.1046 14.3001 
8.8847 40.2532 14.6998 10.1047 41.5904 14.9001 7.34858 40.5538 14.5 
6.66382 42.205 14.2996 7.85358 43.5886 14.9001 7.39024 46.3266 14.7 
5.09998 46.5106 12.2814 5.17376 42.5764 13.3 4.9003 44.477 12.5507 
3.89976 41.7398 12.0585 5.10014 45.2362 10.5451 8.24198 35.4466 13.7003 
4.10042 43.4648 10.9314 13.4996 33.4988 10.4945 13.2998 32.6208 9.70214 
12.6185 24.0998 12.727 10.1345 24.6542 13.2997 18.5858 13.5001 13.4816 
14.6962 13.2487 16.1003 17.3859 16.5 16.2291 15.8713 14.8999 11.3451 
10.8795 30.983 8.29982 12.0967 30.0832 11.7 13.674 28.6026 10.6997 
12.2195 28.2494 11.9001 13.3002 29.8342 9.61946 13.2998 26.72 11.3837 
8.96834 34.7082 13.5003 6.69996 37.7396 8.4416 5.3002 23.5634 10.9324 
5.29988 25.2136 11.7227 6.85778 25.773 12.6999 8.14572 24.3482 13.2998 
7.60236 22.2232 13.1002 5.61374 36.3832 13.3 4.89988 37.3092 12.9594 
4.70012 39.0132 12.9876 7.00676 27.552 12.9001 5.77722 47.1176 10.5 
6.30008 49.5412 11.0672 9.0805 52.5002 12.3284 8.33668 50.7626 9.0999 
10.6614 53.7946 9.09992 19.2789 41.8996 11.9247 20.7086 43.3 12.639 
20.9574 44.7114 11.1001 20.2998 47.6642 10.071 21.9 46.6174 11.5509 
23.1244 46.9 13.5463 24.304 49.351 14.1 23.7002 50.9596 12.181 
21.7 51.5776 10.7731 20.0158 53.9162 9.70006 19.7878 55.5 13.003 
16.1177 55.4562 12.1001 17.3298 54.391 8.49968 13.8439 55.3 8.31336 
25.1 52.9052 13.4344 22.1396 53.5 14.5531 12.7028 55.1 11.586 
16.0838 56.8526 8.8999 21.3442 43.9 14.5653 22.4084 45.5002 14.655 
23.3 47.0376 15.5029 22.0998 47.618 16.8994 22.1704 49.5932 17.0996 
21.5 51.579 15.8842 23.8014 50.4472 16.5003 20.2602 47.8628 17.0998 
18.8735 48.6176 16.3003 4.9356 33.5296 12.6998 4.50018 34.5692 12.335 
6.71624 46.1882 9.29996 8.23354 45.1684 8.49992 9.5489 43.328 8.10006 
8.89226 47.1016 8.4999 11.2249 47.7522 8.09976 13.8648 49.0814 7.90036 
13.0289 45.511 8.09972 11.6579 43.8312 8.09996 13.2787 42.3578 8.29974 
15.2426 41.2324 9.10006 8.63084 48.9508 8.69998 4.10014 34.9476 9.64716 
3.49982 35.3646 10.3772 3.89986 35.8 9.72656 4.2459 36.768 9.70002 
3.70802 37.3536 10.3002 3.69982 38.0542 11.1571 3.69986 37.0248 11.2837 
3.89966 38.7436 11.9955 3.70016 39.1246 10.8355 4.6426 39.622 9.69982 
6.05364 40.188 8.8999 6.04302 41.972 9.09994 7.5497 42.9726 8.50002 
3.90532 40.4078 10.4999 4.0998 36.5536 12.2122 4.50018 37.719 9.56316 
4.56654 38.6802 9.49996 3.69994 36.0956 11.3679 3.95814 35.6662 12.1002 
6.46084 38.3248 13.8998 5.45142 38.4132 13.4998 5.50014 39.4886 13.5297 
6.01134 40.4648 13.9 5.64816 41.628 13.9001 11.6008 35.6452 8.29982 
10.6762 34.9486 8.09988 10.7759 36.4448 8.10028 8.31122 26.9074 8.2996 
7.71294 25.7278 8.2998 5.10016 30.6004 12.2392 6.10002 22.192 10.06 
5.49978 48.1886 11.8822 5.92294 47.5386 13.5002 5.96074 45.7054 13.7 
3.9002 29.726 10.6939 4.2074 29.219 9.49998 3.9001 30.4372 9.69202 
7.40388 28.5556 8.10002 7.3002 51.0616 12.4618 8.7912 50.2752 14.1 
10.6206 51.555 13.6997 12.8256 50.9192 14.2998 11.2148 53.5048 12.4998 
13.1144 48.7358 15.3 15.0837 50.2004 14.4997 16.8914 51.7 13.9117 
17.8479 53.9372 13.3002 8.46656 48.213 14.6998 7.31838 49.535 9.50014 
7.29996 51.0092 10.5966 8.70002 52.6488 10.1685 9.90432 51.9678 8.70016 
12.1372 52.2878 8.09998 9.35762 23.087 13.4999 11.2751 22.964 13.4997 
11.6426 41.5122 14.4999 12.7872 43.2034 14.9002 13.9799 44.7002 15.2425 
11.0048 42.7 14.98 9.49392 43.388 15.0998 8.84662 45.2014 15.2999 
5.05378 43.0824 9.70002 5.24254 34.4034 12.9002 7.38126 38.315 14.1003 
14.9 39.1426 10.8015 8.84284 40.0952 8.10016 8.99288 41.756 8.30008 
13.275 13.5001 13.0269 4.58646 28.856 11.6999 4.50018 27.5528 11.4064 
5.40028 28.1854 12.3001 6.523 28.7736 12.7 4.69972 26.2914 11.3923 
7.59238 28.5398 13.1003 8.36472 29.237 12.9003 8.68116 28.1388 13.1002 
9.26074 28.8942 12.8999 10.1912 28.9762 12.7 11.0724 28.0216 12.5003 
10.4199 26.871 12.8997 10.1573 29.9306 12.7001 9.63604 30.821 12.9003 
10.8793 25.649 12.9001 9.57756 25.8476 13.1004 12.1 25.3034 12.5021 
13.5079 25.063 11.9 11.3965 24.3774 13.0997 13.9001 23.6258 12.1005 
15.3303 22.8932 11.4997 16.4999 21.0714 12.4808 18.4996 17.6598 12.4028 
13.1 22.753 12.9275 13.2999 21.293 13.5235 11.776 21.5142 13.8997 
10.9123 20.2434 14.3001 9.35476 20.0732 13.9 11.6356 18.8624 14.6998 
14.7381 20.723 13.2998 14.0006 19.8076 14.3001 14.7174 18.5421 14.8998 
16.8448 18.2552 15.0999 15.2535 16.8268 16.1001 13.3001 15.2986 15.9145 
17.5997 19.507 13.5002 17.1 19.1596 11.2029 16.0016 14.8778 16.9001 
17.9718 11.8999 16.6259 18.5065 14.3634 17.0997 20.6998 16.1283 14.8299 
21.7002 12.5644 15.9061 18.9434 17.5001 14.979 10.9516 17.5046 14.7001 
10.0148 16.6101 13.9 10.9632 14.7003 12.5337 9.1319 17.7822 13.5001 
[...]
CELL_DATA 41344
FIELD FieldData 1
Cell%20Volume 1 41344 float
0.0439734 0.0343761 0.0471517 0.12701 0.0916253 0.0774386 0.0432423 0.0576236 0.0840792 
0.0269776 0.086542 0.0462576 0.105122 0.0329269 0.104663 0.0375047 0.0752986 0.0515378 
0.0728467 0.154797 0.160728 0.128595 0.104081 0.189406 0.11806 0.0489325 0.156348 
0.0426362 0.131388 0.141321 0.043857 0.103788 0.0753203 0.0313152 0.0337068 0.0471869 
0.0368805 0.0429403 0.14801 0.0504816 0.0342437 0.0670199 0.047432 0.122692 0.133896 
0.0469644 0.0420069 0.045677 0.0572342 0.0885654 0.0630443 0.0350477 0.0634529 0.0700473 
0.0677322 0.0620708 0.0401821 0.126048 0.0425028 0.0368767 0.0468747 0.126548 0.101211 
0.0831016 0.102098 0.112689 0.0451856 0.0982927 0.0346227 0.082945 0.0569718 0.0357237 
0.0463992 0.0479613 0.201771 0.108094 0.106478 0.0736119 0.0376939 0.0327358 0.120255 
0.0403858 0.075982 0.135948 0.0342052 0.0353354 0.0348835 0.0755253 0.104272 0.100532 
0.0990466 0.090044 0.0478508 0.0746296 0.100856 0.173152 0.132107 0.0966274 0.0333365 
0.129859 0.0379011 0.0452576 0.0429551 0.0529288 0.204299 0.030006 0.0364142 0.0499835 
0.14094 0.199053 0.0359961 0.0431688 0.0458654 0.0463042 0.128106 0.0898397 0.0414871 
0.0523203 0.0322933 0.0401941 0.0821332 0.0566239 0.0605699 0.14795 0.093382 0.064439 
0.0478689 0.0495131 0.0425274 0.0649165 0.0570719 0.0581982 0.167756 0.096812 0.156328 
0.105111 0.052641 0.0536329 0.0788111 0.133914 0.0712138 0.0398796 0.0342255 0.0490294 
0.0288997 0.183142 0.0514277 0.116897 0.12404 0.0404463 0.0784607 0.115046 0.0391668 
0.160476 0.0460126 0.205274 0.103809 0.265832 0.0552249 0.115076 0.0972713 0.166853 
0.107185 0.0570349 0.0487669 0.0858933 0.0399061 0.117989 0.0495579 0.0518376 0.0345025 
0.112784 0.0563988 0.0426889 0.150485 0.105433 0.046243 0.0613517 0.0793033 0.0662779 
0.032722 0.208817 0.0494425 0.0609197 0.163584 0.154234 0.0401007 0.0391625 0.0526812 
0.0297551 0.0478139 0.0401089 0.10962 0.0750081 0.151177 0.0748916 0.0368231 0.105975 
0.165825 0.0500932 0.100202 0.0413424 0.0434598 0.0204701 0.149092 0.0688844 0.0617722 
0.0690807 0.0749898 0.0775445 0.0743267 0.146615 0.149683 0.0497733 0.0428156 0.0605053 
0.0494706 0.0926245 0.164325 0.0728408 0.0859994 0.141339 0.0481785 0.0745656 0.0938467 
0.145208 0.042662 0.0673889 0.109984 0.142067 0.0997515 0.0513273 0.0268579 0.0581206 
0.0532886 0.0583245 0.0802719 0.0318278 0.0414417 0.0478528 0.0523016 0.0911037 0.0593061 
0.115923 0.0963978 0.0751125 0.219077 0.112729 0.0493285 0.0530007 0.0826803 0.102713 
0.0388569 0.044286 0.040917 0.0792057 0.0771096 0.0492995 0.0531529 0.104385 0.037341 
0.127132 0.166533 0.0901182 0.027695 0.0723777 0.105257 0.118469 0.0850548 0.0700594 
0.0583408 0.0657223 0.0543657 0.0500202 0.0439942 0.0834681 0.0349182 0.115803 0.0695284 
0.0401578 0.145513 0.0506316 0.047496 0.0339025 0.0815374 0.086531 0.201129 0.026487 
0.0447989 0.146394 0.0634655 0.0379124 0.0564574 0.0694595 0.043025 0.047466 0.0798588 
0.0420773 0.0270661 0.0336561 0.035463 0.0626935 0.11497 0.0428759 0.102861 0.0379888 
0.0387108 0.0299573 0.0542121 0.137388 0.173304 0.103727 0.0637752 0.0503547 0.095764 
0.0834118 0.0445194 0.178746 0.0375698 0.0455331 0.037635 0.0588181 0.0439093 0.0342231 
0.0486572 0.13511 0.0697549 0.166751 0.0492944 0.0741145 0.0904269 0.0593376 0.189854 
0.127186 0.117564 0.0998253 0.118057 0.0387682 0.0876433 0.0487223 0.0573692 0.0360758 
0.0545119 0.0506643 0.0726706 0.0817342 0.030496 0.0573016 0.122025 0.1657 0.0457563 
0.0767877 0.0621 0.0480243 0.1185 0.0477311 0.0433561 0.0725488 0.0427349 0.0387283 
0.0653374 0.18978 0.0968099 0.0501356 0.104858 0.071786 0.114735 0.0380897 0.0382573 
0.066012 0.0532473 0.0391643 0.041423 0.103104 0.10516 0.0646671 0.0569265 0.0492644 
0.0352799 0.060444 0.0730005 0.0925192 0.0486089 0.0801313 0.163255 0.0477344 0.038532 
0.0785795 0.157561 0.0644337 0.0622384 0.134059 0.0834543 0.110101 0.0532459 0.161936 
0.160556 0.0463062 0.123923 0.125234 0.0803904 0.0686623 0.0992545 0.0585529 0.139651 
0.104319 0.0523179 0.0590724 0.0451687 0.031546 0.0815662 0.0467147 0.04511 0.0629839 
0.0935142 0.0972645 0.182697 0.0940109 0.0990231 0.0535986 0.0698698 0.0727072 0.0911386 
0.0947834 0.109329 0.0756536 0.0422666 0.185595 0.105086 0.0454278 0.0639842 0.110084 
0.0462354 0.0419879 0.0730998 0.042612 0.0533838 0.0733441 0.0604722 0.0854199 0.0864215 
0.0580216 0.123789 0.100401 0.0420409 0.0407143 0.0526677 0.0522925 0.0593695 0.0428981 
0.0509787 0.0546012 0.0409925 0.0398728 0.0504944 0.0798897 0.0403906 0.0502869 0.08901 
0.0758771 0.0383432 0.144042 0.099383 0.105058 0.0466196 0.117665 0.0468592 0.098882 
0.0384425 0.0966122 0.0482248 0.0400275 0.0828963 0.0566894 0.0590849 0.0552775 0.259589 
0.0812097 0.0386418 0.0849591 0.249542 0.0373702 0.115602 0.0893935 0.0346407 0.0599391 
0.0455382 0.130392 0.0428046 0.0409676 0.078438 0.050721 0.0405803 0.108968 0.0324213 
0.142689 0.05531 0.0409795 0.0425233 0.140852 0.0311646 0.083269 0.0613406 0.0351556 
0.0868615 0.0638895 0.0795087 0.0975267 0.040512 0.112401 0.0939306 0.0570789 0.0454751 
0.0499576 0.0404863 0.0518935 0.037436 0.0883613 0.166813 0.162621 0.121252 0.0396117 
0.117608 0.0538402 0.054267 0.0927386 0.0425408 0.0880709 0.0960422 0.0441165 0.123263 
0.0696819 0.0783149 0.101498 0.0537997 0.0274713 0.083621 0.0296633 0.0383903 0.047284 
0.031724 0.0346219 0.0718551 0.0437452 0.0388172 0.169529 0.0441986 0.135655 0.0477976 
0.0651892 0.225012 0.0558714 0.0422981 0.0693639 0.158746 0.126582 0.0381935 0.0636391 
0.0628865 0.0802916 0.0469527 0.0368374 0.0871061 0.0358688 0.0372094 0.135572 0.082913 
0.0535503 0.0303114 0.0917999 0.0581956 0.0977817 0.085223 0.111207 0.0438774 0.0675652 
0.058783 0.117351 0.0386083 0.0851132 0.0598574 0.0410916 0.131783 0.0977687 0.0472356 
0.0952686 0.202632 0.0833898 0.0511063 0.0341828 0.0551425 0.11101 0.0772813 0.0487159 
0.0383318 0.177174 0.116543 0.214655 0.0485696 0.0421361 0.0400902 0.0454205 0.0774205 
0.0373875 0.0572199 0.0948592 0.141408 0.03602 0.0446299 0.0725863 0.0797306 0.0793384 
0.027222 0.0444947 0.0789292 0.0850134 0.0871908 0.141312 0.142351 0.0966017 0.0411056 
0.0307824 0.088399 0.216384 0.0845354 0.043184 0.100299 0.0426872 0.0628476 0.0371923 
0.0825761 0.035785 0.0483526 0.0457575 0.0851324 0.154184 0.0302658 0.0271547 0.0341095 
0.0480889 0.0701781 0.143995 0.17657 0.0474194 0.144197 0.0335183 0.0518892 0.117247 
0.0341726 0.0364444 0.0725189 0.0894334 0.0709345 0.122948 0.0402735 0.0285008 0.0649967 
0.107427 0.0639505 0.0568182 0.0310898 0.0388286 0.0399545 0.058796 0.0244209 0.0550812 
0.0504489 0.106883 0.0788819 0.136315 0.0572556 0.0400945 0.0476417 0.0288065 0.035421 
0.121738 0.0350462 0.0374317 0.0585289 0.101971 0.0436877 0.164656 0.0356968 0.0344294 
0.123657 0.0980641 0.0510362 0.0564929 0.0268621 0.111667 0.0746782 0.0523553 0.203885 
0.112784 0.131879 0.0644047 0.0441663 0.0636864 0.0858378 0.0405861 0.0589071 0.0955795 
0.0966866 0.0820396 0.0800434 0.14975 0.0666917 0.139826 0.086027 0.120156 0.0490351 
0.137337 0.0912257 0.035066 0.0908627 0.154486 0.0905927 0.128538 0.0319166 0.0428427 
0.0697243 0.110782 0.0391466 0.0371257 0.110056 0.132376 0.0691509 0.129853 0.0890252 
0.0386198 0.103271 0.04637 0.0525043 0.0513734 0.0922751 0.0355469 0.0611249 0.0613392 
0.0440507 0.075452 0.088318 0.0485089 0.0286835 0.114366 0.0489842 0.0948706 0.0304355 
0.0452159 0.0428757 0.152392 0.0532889 0.0989917 0.0526804 0.0406513 0.101748 0.113504 
0.0891608 0.0823367 0.0445827 0.115716 0.069873 0.155789 0.0594738 0.040987 0.100097 
0.111481 0.130845 0.100108 0.0744077 0.0713836 0.0572038 0.0905733 0.036628 0.043823 
0.048507 0.0569885 0.130803 0.07864 0.0764056 0.0457822 0.072832 0.034181 0.0331623 
0.0461227 0.149901 0.0502533 0.0589063 0.0450509 0.136189 0.036769 0.0566343 0.10941 
0.109528 0.0662765 0.175548 0.103997 0.0539018 0.0818076 0.0656952 0.0556808 0.0484116 
0.137582 0.114684 0.0327806 0.0998172 0.046203 0.0971978 0.0381829 0.105274 0.0953412 
0.105662 0.174904 0.0720185 0.0623205 0.0171618 0.112781 0.0748386 0.0365553 0.0427359 
0.0307242 0.205293 0.126388 0.0277789 0.053632 0.112265 0.0534377 0.129952 0.0400322 
0.0343437 0.0971885 0.102734 0.0764023 0.112373 0.0527125 0.0295744 0.132697 0.0482704 
0.0936552 0.0713624 0.175148 0.100411 0.0453415 0.0713923 0.0336808 0.0400102 0.175152 
0.068199 0.0406658 0.0598965 0.0545359 0.0950052 0.0800453 0.10651 0.0383106 0.124853 
0.036942 0.0736606 0.0314866 0.0640278 0.111663 0.0406145 0.0942387 0.0907384 0.0914884 
0.0758309 0.102786 0.0329452 0.137463 0.0441918 0.0490017 0.0426441 0.130621 0.0304739 
0.0505713 0.0529897 0.0875169 0.0390541 0.106291 0.139411 0.0382593 0.125551 0.0579718 
0.060096 0.102038 0.0745283 0.0495439 0.0519654 0.0922616 0.046067 0.0504909 0.0926638 
0.236757 0.0783679 0.0240064 0.111464 0.127559 0.132355 0.134091 0.0365522 0.0566822 
0.101096 0.0372856 0.053775 0.0385227 0.0510403 0.0480817 0.144618 0.0390501 0.0443461 
0.0421105 0.175339 0.0513112 0.0506753 0.0329436 0.0659267 0.0477021 0.0544265 0.123972 
0.0428772 0.0515532 0.0898839 0.1088 0.106158 0.0735402 0.0444741 0.0921726 0.0643158 
0.0414617 0.0413481 0.0670523 0.0408601 0.063781 0.0348355 0.159305 0.0907694 0.0598918 
0.0842262 0.0440667 0.113561 0.0761211 0.0847012 0.11613 0.0479647 0.041804 0.0456087 
0.157822 0.0641033 0.0458121 0.111555 0.0379428 0.100105 0.0526355 0.0970981 0.0637025 
0.0876386 0.0734662 0.0583198 0.0310688 0.0428306 0.118058 0.0828349 0.0621333 0.0365406 
0.0487313 0.058827 0.112736 0.105103 0.0525082 0.142727 0.0673902 0.0438283 0.189371 
0.171049 0.0344089 0.0792789 0.0453222 0.0375727 0.0648897 0.0535909 0.0302725 0.0314921 
0.209238 0.0572762 0.0442147 0.067256 0.0890697 0.0765396 0.0422573 0.0597194 0.0934769 
0.0329338 0.050482 0.0262502 0.0976609 0.0452905 0.0868161 0.106178 0.156241 0.0875223 
0.0927187 0.0379613 0.065619 0.120636 0.0596455 0.0674033 0.0685641 0.101274 0.0333862 
0.201914 0.0426379 0.102499 0.0284422 0.0369132 0.0969407 0.0496465 0.070422 0.0674674 
0.129073 0.0759824 0.176631 0.239036 0.0852006 0.194141 0.0520067 0.0761934 0.0360221 
0.0631057 0.164326 0.0567007 0.0730267 0.0563046 0.172913 0.107138 0.0519766 0.0642307 
0.144128 0.111398 0.0494613 0.114094 0.0506388 0.0619373 0.0573725 0.0615821 0.0972828 
0.0499224 0.0672866 0.0514839 0.0487901 0.0831001 0.0390763 0.119133 0.127831 0.106489 
0.0471593 0.0611524 0.0439385 0.0643468 0.0316927 0.143436 0.0742107 0.113518 0.141187 
0.0494762 0.114035 0.0638274 0.0327506 0.027798 0.141145 0.0628083 0.0451354 0.0643791 
0.0624339 0.0488704 0.0815873 0.0991876 0.074778 0.0431726 0.102407 0.114838 0.0341701 
0.0370421 0.0481275 0.0515152 0.0556429 0.0506074 0.0464033 0.0930276 0.0254902 0.0420658 
0.054727 0.049912 0.0352819 0.205355 0.104079 0.184733 0.0198434 0.0676728 0.0335101 
0.0905608 0.146597 0.034205 0.0400904 0.0857043 0.0755308 0.0589106 0.0490414 0.0572928 
0.0602713 0.0457513 0.0545662 0.0643809 0.186578 0.0454457 0.0527079 0.0323974 0.06732 
0.0437686 0.114565 0.0717368 0.162941 0.0523803 0.0554466 0.103652 0.0859196 0.0929767 
0.0481075 0.0592933 0.117191 0.0399555 0.0451541 0.063615 0.0773022 0.0370002 0.0675202 
0.0463327 0.172282 0.0427299 0.115988 0.172663 0.0823083 0.0813735 0.0767979 0.0928276 
0.0387821 0.120319 0.0661256 0.080815 0.198831 0.0365121 0.0656971 0.0442458 0.157033 
0.0519377 0.0909252 0.114429 0.0675879 0.11088 0.0418907 0.08749 0.0855985 0.108487 
0.0608483 0.0366888 0.046791 0.0432253 0.0316056 0.124 0.0551948 0.160043 0.0809297 
0.0827739 0.0604545 0.039533 0.0262006 0.174464 0.0857643 0.150291 0.0668273 0.0674259 
0.0827074 0.114765 0.0410587 0.133332 0.127733 0.0645438 0.077301 0.0897246 0.107955 
0.0730009 0.0473632 0.082845 0.0381281 0.12148 0.0314419 0.0648931 0.0937319 0.0339886 
0.0510861 0.107057 0.0608521 0.0772423 0.104052 0.0428091 0.0488498 0.10446 0.0731171 
0.104141 0.0399255 0.0887281 0.143511 0.0829124 0.0422823 0.154364 0.132012 0.0425364 
0.0524542 0.0377573 0.08758 0.112694 0.0490041 0.0656674 0.0324299 0.203058 0.0807661 
0.0986535 0.0281072 0.0437923 0.0681411 0.0585034 0.102784 0.106823 0.066012 0.133959 
0.0377725 0.145685 0.0740015 0.111208 0.064525 0.0450227 0.0363833 0.0548566 0.0396479 
0.103541 0.0238275 0.149428 0.0919437 0.0363135 0.0348259 0.0630324 0.115741 0.072124 
0.0970012 0.0466216 0.0461157 0.0549653 0.0890891 0.055711 0.0460647 0.113851 0.0859729 
0.112047 0.138367 0.106567 0.0566307 0.0358159 0.0431293 0.105301 0.0967005 0.0316317 
0.0551037 0.0599893 0.16112 0.051024 0.0556314 0.0477391 0.0604859 0.0749467 0.0366463 
0.0656647 0.0894705 0.0969345 0.0439921 0.0860725 0.0449749 0.19985 0.0706542 0.0791931 
0.061195 0.0806675 0.149326 0.0442997 0.100816 0.0360105 0.0339377 0.0435794 0.0395488 
0.0511475 0.0914505 0.117816 0.0727028 0.0374831 0.044387 0.0660354 0.213108 0.109071 
0.126642 0.0693868 0.0555187 0.0496832 0.0401024 0.173018 0.0601399 0.0418851 0.0477947 
0.111233 0.0261389 0.0872947 0.0598337 0.0632809 0.128508 0.187945 0.0521574 0.102828 
0.0384952 0.0261497 0.0904101 0.0584724 0.0362666 0.114399 0.0365957 0.146742 0.154368 
0.0351827 0.0354189 0.0601644 0.124874 0.0404863 0.0514496 0.0522143 0.13184 0.0458603 
0.108271 0.044988 0.0429437 0.0322704 0.0477282 0.0389635 0.0353702 0.0549953 0.0396747 
0.155648 0.0632889 0.172323 0.0311485 0.0843265 0.0723272 0.0284818 0.120113 0.066135 
0.0512792 0.0509688 0.0278983 0.0399057 0.0323559 0.0425546 0.118401 0.0999465 0.0313692 
0.0750869 0.111042 0.114545 0.0310601 0.0889705 0.038319 0.174747 0.0371048 0.0957297 
0.144042 0.0977127 0.0554091 0.095403 0.125878 0.235534 0.0470077 0.0286208 0.0342114 
0.129292 0.0406766 0.0485945 0.206183 0.207853 0.027508 0.129223 0.0552249 0.0526404 
0.167886 0.107309 0.0432187 0.105174 0.0397805 0.0399175 0.0911712 0.0313991 0.0413985 
0.0601558 0.0551898 0.0639809 0.0854826 0.0462569 0.0375589 0.0667567 0.0570235 0.11809 
0.109571 0.0756016 0.0982897 0.0358135 0.0532134 0.110465 0.0411923 0.0710697 0.147366 
0.0749379 0.0361502 0.0595918 0.0635087 0.0457903 0.0420055 0.0511145 0.0430946 0.0426599 
0.0478909 0.0750394 0.0877162 0.0403836 0.0720614 0.0599023 0.0636835 0.111567 0.0421152 
0.0243051 0.0511525 0.0624514 0.125057 0.0510806 0.0344684 0.0411494 0.0581474 0.104038 
0.0544199 0.0283531 0.175672 0.133821 0.0859527 0.112469 0.149198 0.141495 0.0457981 
0.102404 0.0534101 0.0422808 0.134951 0.0435598 0.053134 0.0902889 0.0541975 0.0459774 
0.153598 0.0423174 0.0614978 0.0488383 0.154094 0.0374881 0.0454568 0.0359682 0.0647687 
0.0746519 0.105265 0.0311908 0.0446079 0.0488132 0.0696873 0.0400927 0.0544031 0.0740734 
0.17122 0.0751583 0.0907695 0.168595 0.0884841 0.0454136 0.0417447 0.0424599 0.0712492 
0.245567 0.0333307 0.0360226 0.22086 0.0788766 0.10502 0.110158 0.048534 0.0435669 
0.0680602 0.0859154 0.158138 0.0612976 0.0379098 0.0367043 0.0399677 0.0827882 0.0917938 
0.101064 0.117112 0.0745166 0.0342321 0.119543 0.13736 0.0836717 0.148555 0.0284365 
0.0792969 0.0792444 0.0992259 0.0333609 0.0526471 0.0433037 0.0305709 0.151134 0.0331541 
0.0452197 0.0883614 0.12121 0.0391083 0.11472 0.038673 0.0759551 0.0991068 0.0575021 
0.0332049 0.206736 0.0469624 0.122828 0.0336187 0.0949629 0.0396349 0.0791461 0.0478399 
0.0233959 0.102952 0.0830657 0.079348 0.120249 0.131319 0.0385936 0.089419 0.0440775 
0.0722387 0.0447686 0.0374957 0.034654 0.122022 0.081703 0.0542089 0.0408192 0.0917667 
0.0792216 0.0666004 0.0750265 0.0655381 0.0577586 0.0958084 0.0706988 0.173523 0.139892 
0.0678893 0.144583 0.143989 0.0424354 0.130241 0.0207376 0.0318818 0.109507 0.0821987 
0.0593856 0.118587 0.08392 0.0724192 0.0759143 0.0260547 0.0731884 0.0364883 0.0659049 
0.129343 0.0791127 0.0798143 0.0488511 0.119418 0.0415279 0.044814 0.260697 0.11084 
0.0413696 0.0514123 0.0596414 0.0873084 0.106809 0.0409011 0.0652258 0.0882056 0.033661 
0.0404266 0.0553474 0.074108 0.031489 0.135769 0.0869732 0.106694 0.0596305 0.0467382 
0.115585 0.0700007 0.0233526 0.0533058 0.0301871 0.0961019 0.0380679 0.0574681 0.087582 
0.0425834 0.0616337 0.0950811 0.0792862 0.042309 0.0465364 0.066717 0.109263 0.0551932 
0.122606 0.0907043 0.0417123 0.0873247 0.0853012 0.0570149 0.172923 0.0541832 0.156863 
0.122727 0.0978152 0.0776577 0.0383377 0.0522538 0.0988927 0.0549982 0.146348 0.158433 
0.0399311 0.0586041 0.127191 0.100168 0.0633213 0.0649134 0.0399296 0.0400515 0.0662441 
0.0526774 0.0613645 0.213719 0.0374002 0.185865 0.0491238 0.238474 0.0391968 0.0315203 
0.0695493 0.0815013 0.0639724 0.117098 0.113006 0.0617916 0.0955383 0.0548266 0.0804094 
0.0432611 0.108006 0.0969611 0.0712081 0.124258 0.0610964 0.0953375 0.051041 0.0707181 
0.104851 0.121897 0.119338 0.0346398 0.0360343 0.15667 0.0867685 0.191413 0.0414082 
0.0293625 0.0432783 0.0742723 0.0875471 0.0723039 0.0551701 0.0381447 0.258563 0.136808 
0.127203 0.048071 0.0456649 0.0649069 0.0518471 0.0747297 0.106893 0.0371845 0.0457587 
0.124036 0.0906604 0.0355144 0.0243952 0.0467083 0.0605625 0.0518408 0.0448146 0.107598 
0.0406939 0.10818 0.0365361 0.138805 0.0782375 0.0840196 0.0542334 0.170265 0.0751459 
0.0331138 0.100096 0.071417 0.0486703 0.046942 0.099189 0.166219 0.0473636 0.0369836 
0.0429641 0.156653 0.0509156 0.0388297 0.042692 0.0782737 0.063091 0.0435557 0.0560331 
0.051824 0.156736 0.0426679 0.131031 0.119187 0.0480907 0.121169 0.0361811 0.0398177 
0.0663183 0.11759 0.0490871 0.0438052 0.112646 0.09213 0.04081 0.0503814 0.0702876 
0.162029 0.0579181 0.0492794 0.0883559 0.19628 0.0468769 0.111414 0.202299 0.0589187 
0.0530472 0.0502234 0.0373894 0.0480299 0.0347724 0.0423424 0.0919661 0.0367468 0.0373427 
0.144982 0.106832 0.0724851 0.0737506 0.0714066 0.0907334 0.0568616 0.0462579 0.076899 
0.0469569 0.060116 0.0519577 0.0409832 0.0476126 0.0349586 0.048482 0.0392653 0.0453889 
0.0482824 0.0907755 0.0911882 0.035173 0.108197 0.0620852 0.12054 0.0477101 0.0437401 
0.0610323 0.0331088 0.0321887 0.0523202 0.136208 0.104615 0.0374803 0.0480937 0.0389291 
0.05454 0.0677711 0.0776365 0.0757655 0.0424491 0.0534987 0.0464033 0.177514 0.0521437 
0.0429113 0.0750848 0.0424777 0.068837 0.0395348 0.041704 0.0416728 0.0386134 0.0670612 
0.0409676 0.0563109 0.0689509 0.122788 0.0244225 0.034012 0.0687491 0.086245 0.0413574 
0.0725322 0.123155 0.133025 0.0444614 0.102473 0.0409935 0.160849 0.0714836 0.0969316 
0.08393 0.155033 0.0462348 0.0844313 0.0465414 0.0444106 0.0813638 0.0605733 0.0801474 
0.0864651 0.0549068 0.0516446 0.109624 0.0358864 0.0423329 0.0420813 0.0933782 0.0357051 
0.105124 0.181772 0.0421453 0.0333515 0.0558294 0.0736481 0.0372161 0.0499708 0.149717 
0.0846858 0.0379256 0.167032 0.106771 0.0772316 0.0394838 0.0827044 0.0657222 0.0525369 
0.0356276 0.0670233 0.0491919 0.0719541 0.166082 0.0416391 0.0417852 0.0523437 0.0345764 
0.0362087 0.0371208 0.0768977 0.0458696 0.111257 0.05758 0.0945413 0.0883018 0.0697262 
0.0933487 0.0698546 0.0953351 0.048377 0.0273451 0.112349 0.102475 0.110194 0.0747465 
0.137815 0.0363387 0.0919529 0.0408178 0.0422352 0.0816116 0.0611155 0.0555695 0.04614 
0.065619 0.073952 0.0891306 0.101952 0.116799 0.101858 0.111478 0.067249 0.18432 
0.0396516 0.0966244 0.0309518 0.102923 0.0744724 0.0477871 0.0748112 0.0622314 0.0567741 
0.052352 0.0420182 0.15544 0.0635703 0.162705 0.22002 0.103897 0.0812523 0.0431089 
0.0457428 0.0916249 0.0430284 0.095938 0.0817425 0.0745946 0.0328384 0.0520513 0.0444395 
0.0423832 0.0834901 0.133194 0.0445905 0.0606722 0.0420291 0.0373657 0.0788966 0.165513 
0.0614037 0.0729158 0.0327096 0.0724381 0.0393088 0.0362519 0.0632603 0.11482 0.044205 
0.114215 0.0430783 0.0372911 0.0493866 0.0376021 0.0717461 0.170242 0.0418884 0.0526606 
0.139085 0.0544766 0.0608188 0.0558723 0.055583 0.155116 0.130023 0.0724234 0.10131 
0.101035 0.038459 0.0881658 0.0855539 0.0329187 0.0282772 0.116348 0.0851433 0.0357145 
0.0473977 0.0730764 0.0513509 0.0506649 0.131605 0.0643852 0.0498967 0.0771114 0.0698863 
0.0511333 0.160224 0.107422 0.0845637 0.03779 0.0341162 0.127069 0.0573907 0.0599671 
0.12752 0.0898949 0.0755871 0.155655 0.0862478 0.148388 0.0349514 0.082024 0.0519373 