# vtk DataFile Version 3.0
vtk output
ASCII
DATASET POLYDATA
POINTS 1586 float
10.5973 21.6645 8.74001 11.3547 22.5071 8.6932 11.5451 21.6092 8.75612 
9.18734 21.838 8.81568 10.2361 22.8667 8.60524 9.87984 20.5885 8.99209 
11.1722 20.6073 8.844 11.1714 23.6003 8.62565 12.0923 23.0859 8.75038 
12.262 22.0739 8.78208 12.2568 20.9821 8.81138 7.85075 21.4341 9.28275 
7.83969 22.6088 8.92522 8.51737 20.6888 9.30202 8.8734 23.4304 8.58217 
9.94934 24.2552 8.47155 9.06692 19.7449 9.44915 10.7956 19.2265 9.1582 
12.2357 19.7419 8.94118 11.0803 24.8092 8.57306 11.9921 24.1101 8.74012 
13.1635 22.5275 8.90891 12.7788 23.6142 8.86548 13.2441 21.4466 8.9172 
13.204 20.3953 8.93891 7.53173 23.9015 8.6978 6.77063 23.162 9.1511 
8.40443 25.2106 8.37938 9.94173 25.6312 8.38303 13.822 19.4913 9.15855 
11.1674 26.0352 8.56456 11.9972 25.2087 8.74934 12.6908 24.5659 8.88715 
13.7428 23.2581 9.07035 14.4186 22.2853 9.27049 14.2715 21.6747 9.21172 
13.4055 24.1895 9.02948 14.2932 20.6991 9.21299 6.40516 23.9061 9.09317 
6.98841 24.8547 8.64962 7.94244 27.043 8.24586 7.0937 26.1776 8.40001 
9.0431 26.6853 8.26941 10.2734 26.8739 8.37922 12.0833 26.3668 8.7716 
11.383 27.246 8.59264 12.7103 25.5695 8.91999 13.2902 25.0235 9.04844 
14.2772 23.934 9.29048 14.8281 22.9216 9.47775 15.5368 21.981 9.85506 
15.2998 21.539 9.71083 15.2787 20.9661 9.70248 13.9331 24.7745 9.22418 
6.09937 24.5712 9.04612 6.12901 25.5919 8.74794 7.61471 28.9132 8.07592 
6.87543 27.6088 8.24761 8.69689 28.03 8.16434 5.98733 26.9053 8.51785 
9.59276 27.653 8.26002 10.5937 28.0426 8.3948 12.7964 26.5911 8.95523 
12.2427 27.4492 8.80332 11.6656 28.4612 8.62124 13.2925 25.8922 9.07946 
13.739 25.4125 9.20288 14.7272 24.6701 9.65539 15.209 23.6656 9.86938 
15.7984 22.6467 10.2143 16.3715 21.7961 10.6766 16.1614 21.3676 10.3754 
14.3234 25.4619 9.49632 5.18626 26.2406 9.01692 8.90435 29.5029 8.05479 
8.39765 30.6291 7.96119 6.35925 28.8261 8.21617 6.37273 30.042 8.14804 
7.25733 30.7038 8.0031 5.76959 28.0305 8.41732 9.70455 28.7296 8.19978 
4.94902 27.5126 8.85819 10.7928 29.2093 8.36502 12.9275 27.4722 8.99437 
13.3577 26.7493 9.11774 12.5221 28.2627 8.85558 11.6974 29.6485 8.56503 
12.3349 29.136 8.77044 13.8231 26.0964 9.26679 14.8729 25.6082 10.4884 
15.2784 24.3916 10.7343 15.7343 23.3743 11.0402 16.238 22.4819 11.443 
16.8573 21.6177 11.9069 14.3729 26.3803 9.65542 10.0361 30.0293 8.14943 
5.43453 28.9942 8.43994 5.41017 29.9603 8.40377 5.37421 30.9755 8.38856 
4.73724 28.7022 8.78818 3.881 28.3405 10.0782 11.0697 30.4259 8.33853 
13.1298 28.0814 9.06396 13.5028 27.5132 9.20262 13.8353 26.8522 9.31589 
13.0029 28.7333 9.00398 11.84 30.6526 8.5481 12.3553 30.1766 8.75368 
12.9222 29.656 8.98424 14.435 26.5155 10.9369 14.4926 25.6659 11.2169 
14.528 26.9524 10.4016 14.7688 24.8804 11.2949 15.1368 23.9541 11.4486 
15.5574 23.0427 11.7368 15.9658 22.3153 12.1086 14.1003 27.4304 9.57687 
4.54649 29.9491 8.82326 4.53102 31.0826 8.79432 3.69545 29.7378 10.0388 
13.6414 28.2288 9.32638 13.5886 29.1086 9.34916 12.3071 31.3791 8.69199 
12.8801 30.8596 8.98886 13.45 30.2788 9.38458 14.1341 27.0555 11.0929 
14.2017 26.3499 11.2857 14.1654 27.52 10.8758 14.1995 25.7058 11.5183 
14.36 25.1059 11.6037 14.2298 28.3058 10.2686 14.5947 24.3683 11.7266 
14.9485 23.5068 11.9085 15.3749 22.7388 12.1261 15.7582 22.1939 12.3753 
3.56675 31.1639 10.0967 4.03282 29.8182 11.3007 4.20924 28.6789 11.3499 
13.9433 29.6401 10.2592 13.3815 31.5985 9.42839 12.8196 32.1392 8.94471 
13.7434 30.9223 10.2845 13.7983 27.0389 11.4344 13.836 27.7319 11.1732 
13.787 26.2271 11.705 13.7878 28.3593 11.0219 13.8409 25.3972 11.94 
13.9805 24.6459 12.111 13.6448 29.1831 10.9761 14.2267 23.885 12.2573 
14.6486 23.11 12.3768 15.1228 22.4933 12.4951 4.66416 28.9068 11.9332 
4.69657 29.8261 12.0917 4.04725 30.8888 11.5477 4.98129 28.0766 12.1202 
4.43486 27.6066 11.4463 13.465 30.2775 10.9389 13.6697 32.2456 10.3414 
13.3588 31.5218 11.0087 13.2541 26.9567 11.8733 13.3552 27.7877 11.5664 
13.4881 28.3386 11.3105 13.2011 25.991 12.1888 13.3295 28.9409 11.3025 
13.2552 25.0547 12.4587 13.4179 24.2267 12.6587 13.1966 29.7652 11.257 
13.7304 23.3303 12.8514 14.4045 22.5905 12.8358 5.64709 28.8096 12.655 
4.76714 30.8059 12.266 5.81089 29.971 12.8306 4.58973 31.6009 12.219 
5.27257 27.0587 12.2487 6.18917 27.7511 12.8574 13.0841 30.8586 11.2639 
13.3383 32.714 11.1921 12.9593 32.011 11.4415 12.4882 26.8026 12.3602 
12.6752 27.824 12.0084 12.9586 28.5802 11.6564 12.407 25.7358 12.6933 
12.7778 29.366 11.6377 12.4719 24.746 12.9738 12.6787 23.8557 13.1941 
12.7419 30.2875 11.5673 7.36459 29.0536 13.2322 5.66134 31.1965 12.8483 
7.06636 30.6646 13.2398 5.70911 32.097 12.9733 6.51636 26.3762 12.9172 
5.55758 25.8115 12.2941 7.64141 27.2757 13.2559 12.635 31.3629 11.64 
12.4821 32.3866 11.8592 11.4571 26.5291 12.8708 11.7556 27.6517 12.5212 
12.1175 28.797 12.1372 11.3223 25.4339 13.175 12.1605 29.8721 11.9863 
11.4304 24.3572 13.4447 11.6872 23.3732 13.6806 12.269 30.7509 11.882 
8.65277 30.63 13.2741 9.17342 29.7062 13.175 8.7871 28.3397 13.2698 
6.75006 31.7027 13.2505 8.13693 31.7452 13.3918 7.23489 32.5225 13.4483 
8.16315 25.5856 13.366 6.51801 25.1466 12.8222 9.13975 27.0106 13.3107 
12.0306 31.5894 12.0659 11.7868 32.7714 12.3636 10.0625 26.1264 13.2938 
10.5524 27.2731 13.0229 10.9863 28.4036 12.732 11.246 29.5008 12.5069 
9.95959 24.909 13.5156 11.563 30.5692 12.2997 10.2036 23.6476 13.7599 
9.58085 32.0438 13.2115 10.0427 31.0541 12.9845 10.5056 30.2129 12.7934 
10.0591 29.0513 12.9926 9.86868 27.9964 13.1221 8.82298 32.9537 13.4948 
7.10312 24.3037 13.0628 8.59517 24.0151 13.5387 6.03276 24.219 12.4203 
11.1608 31.4451 12.5463 10.7579 32.4722 12.8451 8.92381 22.6135 13.7649 
6.42652 23.555 12.6229 7.45336 23.1484 13.1894 6.58889 22.6362 12.6109 
7.51956 22.0885 13.203 18.2109 11.8203 15.5199 18.5654 11.77 15.5563 
18.2237 11.7447 15.9497 18.1777 12.0086 14.975 18.6124 11.9031 15.1684 
17.7643 11.8677 15.467 17.8606 11.7913 15.9305 18.9576 11.7988 15.2983 
18.5584 11.6927 15.9697 18.8562 11.698 15.6566 17.8912 11.8103 16.394 
18.2946 11.7571 16.4508 18.7564 12.1277 14.721 18.5132 12.3823 14.3423 
17.8011 12.2798 14.4221 17.4457 12.0165 15.0206 19.0008 11.9824 14.9183 
17.4662 11.8437 15.8829 17.1519 11.9223 15.5062 17.4241 11.8831 16.3439 
19.2681 11.8399 15.0857 19.1368 11.6528 15.6348 19.3312 11.6716 15.4318 
18.8175 11.6429 16.007 18.65 11.6908 16.4362 19.0616 11.6114 15.8979 
17.4707 12.2315 17.0922 18.0535 12.0979 17.0858 18.513 11.9887 17.0402 
19.1074 12.1749 14.6095 19.0164 12.4392 14.2934 18.8995 12.8816 13.8427 
18.2347 12.8063 13.7797 17.2365 12.5954 13.8276 17.0218 12.1693 14.6435 
16.8597 12.0335 15.1498 19.3134 12.0473 14.7407 16.8879 11.9648 16.1795 
16.5168 12.0114 15.6799 16.807 12.3718 16.9778 19.5949 11.8487 14.9452 
19.6113 11.6552 15.3041 19.2912 11.5655 15.8855 19.4889 11.545 15.7356 
19.683 11.5385 15.5828 18.9806 11.607 16.3055 18.9223 11.8722 16.984 
19.3088 11.534 16.1583 18.0398 12.7939 17.4863 17.5206 12.9617 17.4817 
18.4989 12.5939 17.4371 18.9134 12.4508 17.38 19.3786 12.35 14.363 
19.3809 12.815 13.9447 18.6959 13.4536 13.349 19.3305 13.4054 13.5378 
17.8446 13.3096 13.1932 16.7138 13.0576 13.1443 16.0945 12.5684 13.7988 
16.4591 12.276 14.4036 16.4761 12.0913 15.0613 19.6833 12.1401 14.5387 
16.1295 12.456 16.7018 16.0197 12.1228 15.6256 20.0734 11.8509 14.8042 
20.003 11.6315 15.1831 20.0286 11.4892 15.5246 19.6723 11.4536 16.0471 
19.966 11.4188 15.8428 19.3695 11.7205 16.8834 19.3087 12.3669 17.3302 
19.8915 11.5898 16.7466 18.4511 12.9565 17.5317 17.9784 13.091 17.5462 
18.887 12.8074 17.4834 19.1876 12.6553 17.4233 19.8787 12.6156 14.0904 
19.8606 13.2423 13.7056 15.0353 12.5664 14.0565 15.6452 12.329 14.4761 
16.0255 12.1625 14.9703 20.2215 12.1762 14.4209 15.4778 12.2391 15.2785 
20.6877 11.8336 14.7601 20.4918 11.5911 15.1639 20.3759 11.4807 15.4584 
20.4197 11.4059 15.7444 20.432 11.4996 16.5375 19.7172 12.2761 17.2542 
19.5045 12.6333 17.3837 20.1353 12.1796 17.1451 18.9556 13.2011 17.5266 
18.4351 13.3894 17.5759 19.3175 12.9764 17.46 20.4577 13.0352 13.8639 
20.5423 12.5488 14.1344 20.8406 12.0929 14.481 21.3415 11.8916 14.8427 
21.051 11.6045 15.1347 20.742 11.4568 15.5337 20.9815 11.4652 16.2479 
20.9258 12.1224 16.8319 20.4975 12.2367 17.0647 19.8327 12.5376 17.3078 
19.7508 12.922 17.376 20.1269 12.6077 17.2465 19.5588 13.3027 17.4234 
19.0235 13.5965 17.511 21.1102 13.2805 13.8824 21.0617 12.779 14.0696 
20.9749 12.4422 14.2364 21.4283 12.2898 14.4264 22.1604 12.32 15.1974 
21.9013 11.8931 15.5458 21.5054 11.6068 15.9199 21.288 12.1792 16.623 
21.034 12.4655 16.854 20.7116 12.5577 17.0353 20.3801 12.6672 17.1731 
20.0632 13.0042 17.2907 21.6602 12.7887 14.261 22.3118 12.8776 14.9575 
22.0482 12.9959 16.033 21.9159 12.5874 16.115 21.6732 12.3967 16.4033 
21.2179 12.6556 16.7604 21.5996 13.0752 16.4746 21.4682 12.9234 16.591 
20.9396 13.1482 16.9056 7.07223 49.2067 9.62926 6.95471 50.0297 9.96775 
7.80972 49.6634 9.19375 8.18038 50.7147 13.8581 7.44654 50.7619 13.3556 
7.48778 49.8838 13.9416 6.23614 49.3732 10.6092 6.46067 50.9985 11.8156 
6.80839 49.8232 13.4938 6.55948 48.4341 9.92797 7.0997 48.9751 14.1198 
12.5796 36.3182 8.60226 12.8442 35.4273 8.81189 12.0844 35.514 8.43343 
12.4673 35.2017 12.4298 13.0737 35.2497 11.9988 12.9881 36.0546 12.2497 
13.2759 36.126 9.02093 13.3782 35.3429 9.20347 13.5043 35.2434 11.5954 
13.495 35.985 11.7829 13.0572 36.8374 8.79914 13.422 36.6152 12.0186 
8.17247 49.9782 9.00125 7.376 50.7707 9.83051 8.79983 50.5364 8.71762 
9.17073 51.8597 13.3985 7.90629 51.5653 12.9291 8.61092 51.4101 13.5365 
7.25999 51.9022 11.4838 8.11045 51.5676 9.50959 8.56607 52.2001 12.7563 
8.01562 52.698 11.2092 5.86153 49.8382 12.1202 5.89262 48.6186 10.9044 
5.51964 48.7741 12.0716 6.34478 48.8666 13.5852 13.2999 33.8255 9.33018 
13.6416 34.7175 9.5931 13.7762 33.7108 10.3719 13.6742 34.6481 11.2183 
13.3362 33.6761 11.3871 13.1167 34.613 9.08252 13.2295 34.4712 11.6953 
[...]
CELL_DATA 3168
SCALARS T-statistic float
LOOKUP_TABLE default
3.52789 3.67001 1.71964 3.5574 3.62877 1.83832 3.31897 3.43867 3.39945 
3.50622 3.16148 3.46015 3.30081 3.48186 3.5722 3.49026 3.51351 3.50367 
3.55858 3.3689 3.5564 3.46297 2.72152 1.95906 2.80384 1.72745 2.77012 
2.76531 2.77502 2.77185 1.76081 2.83203 2.79201 2.71741 2.17486 2.54231 
2.54083 2.72198 2.78904 2.78834 2.77603 2.78897 2.83249 2.81141 2.81602 
2.56294 2.39387 2.73118 2.5848 2.72803 2.80129 2.84725 2.80504 1.79745 
1.89004 1.95647 1.75195 1.88413 2.05705 1.74822 2.62595 2.47554 2.37574 
2.19082 2.31555 2.2267 1.74054 2.07289 1.69598 1.74055 1.82007 2.25033 
2.09379 1.97875 1.85208 2.20789 2.80337 1.85622 2.57481 2.28895 3.02623 
2.10886 2.80791 1.69739 1.90024 1.80373 2.97205 2.45186 2.30913 1.92896 
1.74971 1.74313 2.25333 1.78998 2.42017 2.12651 2.18974 1.69444 1.81887 
2.29292 1.71925 2.6891 2.70498 2.93055 3.14008 2.60273 3.19632 2.78587 
3.10146 2.59467 3.00593 2.96567 3.33965 3.00147 3.20642 2.85963 3.19982 
2.04568 2.56083 2.08852 1.72078 2.36831 1.79354 2.33779 2.86822 2.87555 
2.83664 2.86841 2.8425 2.94021 2.36138 2.44173 2.43454 2.7636 2.55204 
2.72396 3.14129 3.43895 3.39751 3.52008 3.2576 3.41178 3.27615 3.47388 
1.72031 2.04998 2.15264 2.53533 2.07889 2.225 1.98238 2.27028 3.45464 
3.28545 3.55055 3.05581 3.5446 3.2426 3.52178 3.19383 3.56964 3.19996 
3.58764 2.96667 3.5981 3.03885 3.5877 3.06781 3.39006 3.27369 3.37273 
3.17617 3.52748 3.01621 3.44006 3.15673 2.0016 2.56352 1.8777 3.4839 
3.53382 3.5581 3.5464 3.43535 3.48204 3.50759 3.53805 2.24966 2.02935 
3.14962 1.84948 3.31636 2.48635 3.04548 2.18144 2.58673 3.14415 2.6035 
2.61993 2.63288 2.52879 2.6895 2.88022 3.58138 3.17402 3.56529 3.41481 
3.57227 3.29045 3.57891 3.29985 2.25013 2.97539 1.84089 2.59415 2.41702 
2.66823 2.25618 2.88079 3.51948 2.32535 3.31207 2.47601 3.57017 2.82113 
3.51005 2.56784 3.56045 3.65571 1.80732 3.51457 3.60045 2.1298 3.17206 
2.49555 2.6781 2.05512 2.09125 1.8159 3.40069 2.95042 3.58727 2.54085 
3.37868 3.08596 3.47042 2.87874 3.61016 2.40079 3.60884 2.85778 3.61428 
2.77437 3.62273 2.68805 2.73776 2.90317 2.87899 2.91839 3.54243 3.16289 
3.36149 3.25414 3.50383 3.41765 3.48473 3.2921 3.52303 2.98576 3.23671 
2.63773 3.28511 3.04956 3.38641 2.91922 2.5226 2.76124 2.75776 2.70181 
1.89616 1.82039 2.99939 2.87998 2.8001 2.36906 2.65128 2.43618 2.22679 
1.8398 2.2083 2.33629 1.7914 1.88959 1.79981 2.48579 2.54609 1.76332 
2.38763 2.76117 2.38163 2.55372 2.60912 1.89642 2.24309 1.91967 1.75559 
2.72414 2.31396 2.54254 2.54357 2.82575 2.83299 2.89642 2.88795 2.74752 
2.61344 2.66578 1.78987 2.67796 2.38482 2.10105 2.5956 2.06603 2.51477 
2.49864 1.89875 2.44105 2.09795 2.22278 2.01257 2.25778 2.73353 2.34271 
2.80693 2.6412 2.81278 2.18626 2.78279 2.42366 2.73758 2.71745 2.79796 
2.73164 2.70022 2.49839 2.74548 2.6758 2.88017 2.71262 2.37657 2.06627 
1.79864 2.45688 2.11495 2.9132 2.73158 2.86469 2.79911 2.91824 2.8971 
2.90321 2.83376 2.89894 2.57932 2.85442 2.26131 2.84558 2.67896 2.86653 
2.53416 2.90092 2.90098 2.84065 2.81913 2.80735 2.80842 2.85571 2.86007 
2.92326 2.72281 2.92466 2.90042 2.87648 2.79274 2.91881 2.82551 2.64683 
2.6201 2.6218 2.37437 2.43419 2.34172 2.56971 2.46075 2.88281 3.33632 
2.48215 3.01758 2.58916 3.21938 2.65048 3.20565 2.89676 2.88428 2.88672 
2.89486 2.7461 2.64433 2.15986 2.58311 2.63934 2.78441 2.808 2.75244 
1.9303 2.80987 2.799 2.09502 2.836 2.32705 2.83312 1.93568 2.78749 
1.8835 2.87108 1.88621 2.8062 2.41249 2.82458 2.07596 2.90996 2.42838 
2.90318 1.89874 2.88337 1.98874 2.90231 2.11214 2.73751 1.94119 2.67676 
2.46071 2.74668 2.15696 2.71693 2.20335 2.62544 2.49403 2.73449 2.07133 
2.68909 2.51462 2.68309 2.37755 2.76973 2.40742 2.69829 2.62617 2.83417 
2.77678 2.77032 2.66081 2.89696 2.07957 2.91738 2.53646 2.86994 2.57833 
2.90192 2.42375 2.78439 2.7582 2.83127 2.79698 2.86092 2.87718 2.80443 
2.85118 2.77188 2.53451 2.23208 2.56533 3.47365 3.48229 3.42728 3.38432 
3.53383 3.34187 3.4853 3.40843 1.92279 2.79864 3.38279 3.16333 3.22765 
3.18686 3.27649 3.0607 3.33107 2.17844 2.99751 1.76617 2.53922 1.80067 
2.66716 1.90595 2.74301 2.09904 2.01646 1.8375 1.80901 2.70683 2.25754 
2.4925 2.55231 3.02543 3.41623 2.8341 3.35639 3.20359 3.4183 3.02586 
3.41364 3.20307 3.30852 3.24796 3.3623 2.89139 3.37664 3.12123 3.36591 
2.3703 3.18423 1.97146 2.87784 2.43952 3.27209 2.25433 3.13356 3.64581 
2.14725 3.49903 2.59485 3.54485 1.72897 3.6119 2.16458 1.89182 1.79096 
2.2061 1.95717 2.9556 3.28053 2.62284 3.34058 2.43238 3.1767 2.67639 
3.31034 2.31019 1.91854 2.37249 2.19413 1.74044 1.92483 1.73807 3.25701 
2.66938 3.33955 3.17463 3.57001 2.83164 3.44345 3.03276 3.60202 2.53984 
3.54727 2.81226 2.52999 3.18251 2.41355 2.76412 3.32133 2.78441 3.35466 
3.19649 1.96168 2.5289 1.98938 2.15628 2.21367 2.26247 1.78645 1.85448 
1.95909 2.70111 3.34486 2.69567 3.37471 3.08292 3.34539 2.83038 3.38075 
2.08596 2.95553 2.39174 3.23915 1.88946 2.79672 2.11311 3.01335 3.29106 
1.9293 2.27424 2.96908 2.1042 2.94442 1.86248 3.64408 2.24109 3.62268 
2.15251 3.61461 2.6617 3.63744 2.35821 -0.433049 0.498278 -0.44846 -0.0210749 
-1.10202 -0.194623 -0.591707 0.11659 -0.416039 0.35398 -0.185308 0.298059 -0.685247 
-0.143934 -0.444251 0.17049 0.0307341 0.861697 -0.0943439 0.366182 -0.199706 0.695416 
-0.0532168 0.670161 0.126655 0.347787 0.0872784 0.780216 0.245602 0.425994 0.130433 
0.528539 -0.807215 -0.630721 -1.91198 -1.67844 -1.49981 -0.784654 -1.39569 -1.03872 
0.80607 0.953994 0.278843 0.596602 0.661482 0.992318 0.598009 0.851706 -2.52709 
-2.20405 -2.08539 -1.96753 -2.60116 -2.02444 -2.46649 -2.06874 -1.84113 -1.87558 
-2.19685 -2.09724 -1.62328 -1.67955 -1.88808 -1.87782 0.0261374 1.03012 -0.276162 
0.873469 -0.296475 1.1143 -0.150506 1.03187 -2.12347 -1.1156 -2.52699 -1.92461 
-2.79194 -1.77814 -2.58419 -1.62143 -2.47952 -1.14157 -2.25051 -0.917414 -2.57201 
-1.64199 -2.49852 -1.26598 -2.88884 -2.03678 -2.73236 -2.3709 -2.70113 -2.42733 
-2.91165 -2.29663 -0.797764 -1.60244 -0.725715 -1.56477 -0.857882 -1.45114 -0.73594 
-1.56402 -0.907723 1.0755 -0.632467 0.827715 -1.63459 0.858341 -1.04935 0.941944 
0.497066 0.493052 0.533715 0.536335 0.518416 0.505907 0.51941 0.51431 -1.07343 
-1.41041 -0.841581 -1.47592 -1.06317 -1.35219 -0.973297 -1.41275 -0.156293 -0.188688 
-0.109499 -0.110944 -0.0613975 -0.125683 -0.117638 -0.143607 0.489113 0.46331 0.40545 
0.386769 0.465102 0.455128 0.458787 0.439339 0.542008 0.558721 0.541467 0.618959 
0.536208 0.536113 0.540879 0.569528 0.421964 0.417336 0.363502 0.351215 0.29647 
0.292452 0.365621 0.358105 0.38014 0.5084 0.340034 0.767791 0.480057 0.595537 
0.400362 0.62117 0.278594 0.855092 0.259429 0.560467 0.145687 0.889609 0.213023 
0.769312 0.135254 1.11352 0.0115995 1.18887 0.299253 1.21459 0.171516 1.18537 
0.422142 0.816741 0.501183 0.711803 0.491458 0.669387 0.468706 0.72953 0.354689 
0.849009 0.387247 0.851501 0.454238 0.687107 0.393475 0.788804 -0.652384 1.04592 
-0.0544984 1.04015 -0.315433 1.18877 -0.333327 1.15144 0.508005 0.775543 0.427701 
0.890772 0.496777 0.974245 0.476473 0.877261 0.545269 0.602681 0.527712 0.642281 
0.550919 0.57043 0.540899 0.60485 1.2399 1.64696 0.826792 1.2453 0.942684 
1.51688 1.00554 1.46535 0.439854 1.29108 0.524183 1.24335 0.503233 1.14101 
0.487169 1.24433 -1.74881 -1.8612 -1.70043 -1.75868 -1.76117 -1.86346 -1.74383 
-1.83609 0.38408 1.53105 -0.508353 1.03605 -0.426045 1.29031 -0.201611 1.29329 
-1.23396 -1.36892 -1.07793 -1.15757 -1.24859 -1.28741 -1.18034 -1.2781 -0.818159 
-0.216327 -0.705494 -0.405588 -0.490706 -0.0362795 -0.652209 -0.189411 -1.19371 -1.31036 
-1.32485 -1.42835 -1.23171 -1.30099 -1.26678 -1.37419 -0.937161 -1.07124 -0.891898 
-1.29204 -1.01997 -1.19163 -0.896469 -1.17265 -1.12952 -1.16431 -0.782562 -0.77322 
-1.05012 -1.13348 -0.980088 -1.01942 -1.31545 -1.19814 -1.42267 -1.44981 -1.29541 
-1.03878 -1.35153 -1.24931 -0.293425 -0.214029 -0.174975 -0.0885414 -0.330912 -0.0224261 
-0.255738 -0.0946575 -0.175435 0.070272 0.32216 0.202838 0.0179617 0.393537 0.0160119 
0.206466 -0.452949 -0.30768 -0.421014 -0.075244 -0.631365 -0.401835 -0.486531 -0.236407 
-0.340035 0.152535 -0.347879 0.0551306 -0.198554 -0.0159178 -0.291965 0.0688526 -0.2644 
0.153238 -0.134154 -0.0375951 -0.0587447 0.047727 -0.159057 0.0475728 -1.10197 -1.19459 
-0.897717 -0.828345 -1.28933 -1.33299 -1.0974 -1.14465 0.18979 0.730438 -0.0248058 
0.783301 0.895165 0.407392 0.254527 0.605182 -0.64676 -0.57033 -0.755276 -0.638637 
-0.96947 -1.02479 -0.778721 -0.732118 0.920024 1.22645 1.25628 -0.730977 0.0819257 
-0.447225 0.0738654 -0.464148 0.229692 -0.537681 0.149531 -1.4561 -1.55301 -1.50581 
-1.5787 -1.49187 -1.63709 -1.49223 -1.59153 -1.17752 -1.37202 -0.980417 -1.32542 
-0.963075 -1.16241 -1.00874 -1.28812 -1.58637 -1.78559 -1.31692 -1.62607 -1.60311 
-1.69695 -1.50174 -1.70484 -1.29149 -1.44226 -1.3464 -1.48338 -1.12354 -1.39976 
-1.2596 -1.44354 -1.42539 -1.48107 -1.39868 -1.48005 -1.2403 -1.35757 -1.38066 
-1.46524 -0.942483 -1.37787 -1.07454 -1.51451 -1.03307 -1.38583 -0.969874 -1.42507 
-1.17918 -0.769826 -0.975654 -0.568807 -1.20343 -1.00762 -1.12981 -0.803704 -1.10749 
-0.276875 -0.89024 0.391173 -0.642625 0.416777 -0.912106 0.19481 -0.470108 -0.249727 
-0.695544 -0.28018 -0.183806 0.189564 -0.462248 -0.117303 -0.889682 -0.546702 -0.817531 
-0.652148 -1.13587 -0.964488 -0.963001 -0.736589 -1.07655 -0.415084 -0.67558 0.210294 
-0.865613 -0.308084 -0.894746 -0.167721 -1.31596 -1.25896 -1.43977 -1.34563 -1.32222 
-1.22738 -1.36588 -1.27817 0.440013 -0.22978 1.3537 0.0323871 1.17911 0.0393143 
1.47806 -1.47586 -1.34656 -1.49105 -1.51407 -1.51149 -1.41897 -1.50348 -1.42308 
-1.10004 -0.642304 -1.31164 -1.25396 -0.888832 -0.692713 -1.09961 -0.884499 -1.49493 
-1.73937 -1.47199 -1.63632 -1.47629 -1.69944 -1.48472 -1.73195 -0.277805 0.286872 
-0.0348767 0.190971 -0.0699013 0.554735 -0.1432 0.320412 -1.27958 -1.5546 -1.19133 
-1.59511 -1.53965 -1.77046 -1.29462 -1.64417 -1.14924 -1.42523 -1.32835 -1.48155 
-1.29775 -1.47137 -1.26021 -1.45744 1.30606 1.599 1.14524 1.28499 0.878017 
1.197 1.11738 1.35924 -0.0971163 -0.106373 -0.059755 -0.0704077 -0.0157283 -0.0429399 
-0.0565941 -0.0744566 -0.200369 -0.193396 -0.157844 -0.150414 -0.21242 -0.197291 -0.193123 
-0.180913 -0.133423 -0.133959 -0.173925 -0.17205 -0.103655 -0.106683 -0.139565 -0.139925 
-0.0190728 -0.0265542 0.0766196 0.0674855 0.02195 -0.00524481 0.0274933 0.0109743 -0.129536 
-0.119481 -0.19784 -0.179369 -0.140715 -0.13435 -0.158843 -0.144248 0.117385 0.105322 
0.0483561 0.0201428 0.133099 0.117806 0.099732 0.0794467 -0.224569 -0.222109 -0.236271 
-0.233793 -0.264667 -0.276321 -0.244017 -0.244189 -0.229417 -0.24378 -0.197212 -0.243892 
-0.211842 -0.32109 -0.218286 -0.270461 -0.188499 -0.203795 -0.211239 -0.199842 -0.149445 
-0.137403 -0.18983 -0.179757 -0.0180936 -0.0443464 -0.0714569 -0.0760536 -0.100728 -0.107279 
-0.0632105 -0.0776321 0.305922 0.295563 0.173736 0.168072 0.222139 0.213101 0.235005 
0.226911 -0.268762 -0.321328 -0.242414 -0.262006 -0.228189 -0.342251 -0.249273 -0.309971 
-0.251223 -0.450353 -0.290583 -0.381329 -0.218 -0.383809 -0.250225 -0.41035 -0.318324 
-0.482949 -0.491214 -0.527984 -0.362275 -0.40957 -0.38984 -0.478495 -0.640099 -0.64306 
-0.570115 -0.524964 -0.746142 -0.692278 -0.677192 -0.636335 -0.454117 -0.494776 -0.53497 
-0.581356 -0.3257 -0.495743 -0.440379 -0.534063 -0.108308 -0.296612 -0.180961 -0.339436 
-0.166881 -0.254593 -0.151516 -0.300469 0.710231 0.102673 1.03386 0.0267296 0.271717 
-0.160872 0.738387 -0.00847655 0.108266 0.105255 0.145483 0.122705 0.00370772 -0.00150345 
0.0798575 0.0736965 -0.14704 -0.34124 -0.342412 -0.418011 -0.242645 -0.452917 -0.226899 
-0.404474 -0.806108 -0.351991 -1.01096 -0.740036 -0.84262 -0.704624 -0.940415 -0.594981 
-1.11949 -0.531958 -0.79246 -0.227456 -0.960344 -0.194314 -1.01744 -0.299941 -1.03749 
-0.502968 -0.966339 -0.194854 -0.872834 -0.108848 -0.997898 -0.281629 -1.12832 -0.922076 
-1.20968 -0.909046 -0.947558 -0.850412 -1.13719 -0.909023 -0.794216 -0.0362864 -0.47343 
-0.228 -0.808634 -0.573453 -0.70073 -0.280457 -0.600995 -0.312722 -0.778382 -0.617463 
-0.537194 -0.435431 -0.65599 -0.443119 -0.0700499 -0.187068 -0.0682108 -0.0814948 -0.286225 
-0.129677 -0.111166 -0.123932 0.407443 0.0962207 -0.320644 -0.24753 -0.354332 -0.128229 
-0.124425 -0.0846751 -0.141709 -0.216808 -0.048568 -0.156549 -0.069931 -0.232606 -0.0874781 
-0.203437 -0.483013 -0.308834 0.157297 0.187439 0.602739 0.613131 0.0150538 0.135018 
-0.985193 -1.53901 -0.781143 -1.53937 -1.09621 -1.52734 -0.9109 -1.55623 -0.91589 
-1.38023 -1.06198 -1.14338 -1.4017 -0.266256 -1.06149 -0.982249 -1.96887 -1.87519 
-1.37727 -1.53533 -1.39689 -1.56574 -1.58515 -1.68896 -1.69834 -1.25984 -2.3403 
-1.78059 -2.68045 -0.751448 -2.27993 -1.27819 -1.40433 -1.29853 -1.37089 -1.32598 
-1.23751 -1.30335 -1.34504 -1.30557 -3.13088 0.937328 -3.11807 0.222505 -2.64319 
0.0181032 -3.05207 0.452828 -1.34942 -1.31726 -1.40953 -1.37204 -1.45587 -1.35072 
-1.41109 -1.34388 -1.20857 -1.09905 -0.969834 -0.917575 -1.21824 -1.18796 -1.14204 
-1.07466 0.99842 1.58523 -1.42825 -1.35029 -1.46151 -1.32261 -1.49096 -1.36811 
-1.47179 -1.34486 1.61757 1.13973 1.46896 0.810097 0.503902 0.505378 0.570775 
0.578354 0.651504 -0.0805985 0.0192513 0.107029 0.38341 0.218127 0.364943 -1.31042 
-1.31698 -1.19507 -1.29847 -1.16792 -1.31792 -1.22143 -1.31162 -1.37726 -1.49711 
-1.37552 -1.49049 -1.38362 -1.51773 -1.37715 -1.4975 0.773351 1.62391 1.02083 
1.11256 -1.01355 0.551326 -1.26118 0.231433 -1.08849 -0.3842 -1.17381 0.154322 
-0.0855571 0.0757307 0.00961135 0.432839 -0.509558 0.22081 -0.18107 0.227378 1.41644 
-0.361816 0.147947 -0.413181 -0.121327 -0.638819 0.433381 -0.491234 -0.731275 -0.377229 
-0.417608 -0.106743 -0.842759 0.419344 -0.672588 0.00177434 -1.39964 -0.299185 -1.69855 
-1.53462 -1.22878 -0.913368 -1.49757 -0.959343 -0.765182 0.591358 -0.517986 0.0301093 
-0.73244 0.275093 -0.683601 0.337364 -3.02657 -0.484914 -2.64483 -1.59785 -2.4997 
-0.516299 -2.76572 -0.848862 -2.5902 -2.0329 -2.93664 -0.938691 -2.49502 -2.06013 
-2.78065 -1.6973 -2.35549 -1.76693 -1.59812 -0.909852 -2.11889 -0.663225 -1.98703 
-1.18146 -1.60589 -1.23659 -2.29257 -2.20017 -2.04448 -2.06362 -1.99446 -1.99886 
0.666884 1.25947 0.614848 0.836858 -1.35197 -0.62865 -1.78052 -1.58213 -1.32805 
-0.189322 -1.47536 -0.80844 0.280662 -0.0380951 0.363156 0.185107 -0.679796 0.859264 
-0.626178 0.429173 -0.172633 0.757662 -0.506146 0.726351 -1.38967 0.856364 -0.773559 
0.995936 -1.22395 1.12759 -1.12926 1.00665 -0.960137 -0.969637 -0.767276 -0.872742 
-0.942359 -1.06052 -0.891877 -0.986477 0.571719 0.526203 0.780497 0.61982 -0.961728 
0.717954 -0.472901 1.09862 -0.573738 0.965926 -0.679862 0.957493 -1.44266 -1.49282 
-1.42855 -1.33212 -1.32884 -1.42406 -1.40689 -1.4009 -1.00363 -1.07966 -1.06995 
-1.04128 -1.05059 -1.00901 -1.0435 -1.04919 1.55207 1.43424 1.49595 1.62863 
-1.08941 -1.44666 -1.07635 -1.34512 -0.855089 -1.47664 -0.997992 -1.41213 0.379533 
1.07036 0.838236 1.12185 1.1477 0.753846 1.33134 0.554073 0.680908 0.159638 
0.671021 0.140395 0.256128 0.258203 0.502683 1.21248 1.61184 1.52124 1.59441 
1.36512 1.59593 1.66937 1.18487 0.968809 0.510831 0.313398 1.68685 1.1305 
1.06474 0.678944 1.26291 0.686154 0.296215 0.091018 -0.0529357 -0.0714047 0.00538322 
0.15523 -0.0278465 0.476793 0.135306 1.14011 0.587173 1.21853 1.07495 0.521836 
-0.365595 -0.214709 -0.377892 -0.362751 -0.139095 -0.261562 -0.270765 -0.268532 1.37273 
1.44429 0.202624 1.45614 1.64142 1.33 1.63506 1.19981 0.82765 0.641421 
0.85259 1.08132 1.37695 0.961061 0.686624 -0.0571611 0.373549 0.624215 0.777363 
0.400937 0.812818 0.750782 0.711011 0.597396 0.766586 1.47685 -0.448047 0.443463 
-0.419284 1.13982 -0.12107 1.07647 -0.736439 -0.157923 -1.07402 -0.476777 -0.96593 
0.710618 -1.11856 0.000839454 -0.668696 -0.153295 0.211887 0.608848 -0.508274 0.749788 
-0.392191 0.427954 0.247983 0.222628 0.172551 0.169591 0.311654 0.299033 0.243097 
0.233333 0.340209 0.345868 -0.0626236 0.739014 0.000250237 0.529467 0.0141513 0.522561 
-0.000123718 0.983858 -0.176977 0.879134 0.339897 0.984398 0.0150719 1.01971 0.718602 
1.03777 0.832523 1.07183 0.177117 1.04148 0.588659 1.12057 -1.12107 -0.0701703 
-0.610309 0.785793 -0.8677 0.880509 -1.06229 0.55619 0.290438 0.635707 0.846423 
0.939742 0.742277 0.671475 0.638625 0.749088 0.660204 1.00408 0.137412 0.67971 
0.0606886 0.904698 0.243412 0.87416 0.873581 0.401043 0.924267 0.60368 1.01145 
0.745247 0.997833 0.582198 1.06157 0.929643 0.962187 0.73237 1.05327 1.00431 
1.08722 0.909011 0.841062 0.368206 0.838929 0.693498 0.606913 0.470378 0.765857 
0.502996 1.66454 1.03271 1.47651 1.16404 1.48406 0.841799 1.1733 0.0198964 
-0.00698732 0.0819296 0.0721004 -0.0168316 -0.0254027 0.0272515 0.0107691 -0.00149441 0.18634 
0.156793 0.476827 0.558729 0.520455 0.23275 0.399011 0.623188 0.339876 0.929968 
0.12246 0.810243 0.225187 0.779078 0.220579 0.913419 0.139008 0.525795 0.362233 
0.595177 0.326048 0.65991 0.265209 1.21508 -0.0233742 1.2949 -0.165446 0.415039 
-0.251644 1.08064 -0.144669 1.48611 -0.0661173 1.19121 0.0524002 0.942078 0.179647 
1.27583 0.0530756 1.00099 0.158363 1.14206 -0.106267 1.45656 -0.0969882 1.29263 
-0.00107089 0.980311 -0.2857 -0.00975391 -0.630917 -0.106469 -0.474336 0.28265 -0.468718 
0.796529 -0.307011 0.252161 -0.274255 0.732755 -0.480088 0.5683 -0.405942 0.290188 
0.0216199 0.875914 -0.102272 0.636229 0.283622 0.625145 0.0887376 1.29323 -0.368236 
0.728468 -0.135424 -0.179382 1.37914 -0.257821 0.175646 -0.186859 0.715362 -0.44402 
-0.00593034 -0.297032 0.231804 -0.377993 -0.0333427 0.762476 0.210132 1.55497 0.712817 
1.49214 0.234818 1.37161 -0.41319 -0.347398 0.545529 -0.510061 1.28054 -0.413278 
1.06732 -0.27584 0.514275 -0.536558 1.23013 -0.237656 0.986051 -0.350601 -1.25099 
-0.904116 -1.17359 -0.952737 -1.209 -0.92923 -1.22468 -0.930667 0.666861 0.469594 
0.619709 0.258518 -0.0096804 0.108517 0.441872 0.284107 1.3696 -0.393019 -0.168027 
-0.639734 -0.0249171 -0.59867 0.31439 -0.529903 0.00549381 -0.0650742 -0.0362534 -0.0460783 
0.121111 0.0719495 0.0210193 -0.0176686 -0.133463 -0.0609539 -0.194005 -0.135968 -0.0405714 
0.240646 0.378912 0.181154 0.668008 0.593419 1.03425 0.958051 1.31114 1.15523 
1.59505 0.370401 0.870567 0.112004 0.307539 1.61807 0.266482 0.0534567 0.0182506 
-0.556816 -0.60752 0.0555122 0.0193662 -0.194142 -0.240082 -1.02639 -0.609892 -0.684947 
-0.34879 -0.771399 -0.494039 -0.868214 -0.511573 -0.835874 -0.87352 -0.999933 -0.996031 
-0.920778 -0.934673 -0.929259 -0.948944 -1.09767 -1.0138 -1.16029 -0.965422 -1.12424 
-0.985824 -1.13191 -0.987667 -1.20074 -0.823962 -1.14019 -0.715007 -0.926519 -0.664768 
-1.1263 -0.744435 -0.703079 -0.750234 -0.823106 -0.834961 -0.388304 -0.405156 -0.666269 
-0.695577 0.747323 0.673787 1.48411 1.14502 1.54446 1.24644 -1.04696 -1.03608 
-1.06086 -1.02761 -1.06484 -1.0243 -1.05863 -1.03175 -1.03228 -1.02095 -1.03566 
-1.03272 -0.981468 -0.984827 -1.02052 -1.0179 -1.06346 -1.0227 -1.06961 -1.03462 
-1.05306 -1.05261 -1.06017 -1.03613 -0.508407 -0.567464 -0.985424 -0.867062 -0.720062 
-0.77134 -0.806915 -0.761816 -1.04405 -1.03887 -1.05676 -1.02698 -1.04697 -1.04445 
-1.04764 -1.03612 -1.06288 -1.05518 -1.01772 -1.0971 -1.05491 -1.07664 -1.04781 
-1.08247 -0.197703 0.0755532 -0.505575 -0.421751 -0.303274 -0.151567 -0.350166 -0.139349 
-0.930575 -1.06769 -0.739221 -0.873475 -0.878057 -0.964441 -0.84972 -0.990222 -0.337657 
-0.335032 0.29605 -0.569494 1.3512 -0.414941 -0.609421 -0.683865 -0.475843 -0.474252 
-0.781105 -0.82289 -0.623514 -0.675999 -0.321912 -0.247136 -0.479623 -0.438068 -0.210388 
0.0433062 -0.338086 -0.196692 -0.146341 -0.0823728 -0.0700487 0.164505 0.177215 0.223728 
-0.0250833 0.115628 -1.07079 -0.993968 -1.03512 -0.876531 -1.13728 -0.947465 -1.09273 
-0.951813 0.919596 -0.378676 0.984207 -0.472231 0.63505 -0.532002 0.847435 -0.485886 
-0.992972 -1.09661 -0.984424 -1.0247 -1.05864 -1.08064 -1.01983 -1.0813 -0.202651 
-0.268556 -0.354184 -0.274738 0.00588842 -0.191572 -0.223062 -0.149495 1.24746 0.799564 