# vtk DataFile Version 3.0
vtk output
ASCII
DATASET POLYDATA
POINTS 1586 float
9.18734 21.838 8.81568 10.2361 22.8667 8.60524 10.5973 21.6645 8.74001 
11.3547 22.5071 8.6932 9.94934 24.2552 8.47155 11.1714 23.6003 8.62565 
8.8734 23.4304 8.58217 12.0923 23.0859 8.75038 12.262 22.0739 8.78208 
11.0803 24.8092 8.57306 9.94173 25.6312 8.38303 8.40443 25.2106 8.37938 
11.9921 24.1101 8.74012 13.1635 22.5275 8.90891 12.7788 23.6142 8.86548 
11.1674 26.0352 8.56456 11.9972 25.2087 8.74934 10.2734 26.8739 8.37922 
9.0431 26.6853 8.26941 12.6908 24.5659 8.88715 13.7428 23.2581 9.07035 
14.4186 22.2853 9.27049 13.2441 21.4466 8.9172 14.2715 21.6747 9.21172 
13.4055 24.1895 9.02948 12.0833 26.3668 8.7716 11.383 27.246 8.59264 
12.7103 25.5695 8.91999 9.59276 27.653 8.26002 10.5937 28.0426 8.3948 
8.69689 28.03 8.16434 7.94244 27.043 8.24586 13.2902 25.0235 9.04844 
14.2772 23.934 9.29048 14.8281 22.9216 9.47775 15.5368 21.981 9.85506 
15.2998 21.539 9.71083 13.9331 24.7745 9.22418 12.7964 26.5911 8.95523 
12.2427 27.4492 8.80332 11.6656 28.4612 8.62124 13.2925 25.8922 9.07946 
9.70455 28.7296 8.19978 13.739 25.4125 9.20288 14.7272 24.6701 9.65539 
15.209 23.6656 9.86938 15.7984 22.6467 10.2143 14.3234 25.4619 9.49632 
12.9275 27.4722 8.99437 13.3577 26.7493 9.11774 12.5221 28.2627 8.85558 
13.8231 26.0964 9.26679 14.8729 25.6082 10.4884 15.2784 24.3916 10.7343 
15.7343 23.3743 11.0402 14.3729 26.3803 9.65542 13.1298 28.0814 9.06396 
13.5028 27.5132 9.20262 13.8353 26.8522 9.31589 13.0029 28.7333 9.00398 
14.435 26.5155 10.9369 14.4926 25.6659 11.2169 14.528 26.9524 10.4016 
14.7688 24.8804 11.2949 15.1368 23.9541 11.4486 15.5574 23.0427 11.7368 
14.1003 27.4304 9.57687 13.6414 28.2288 9.32638 13.5886 29.1086 9.34916 
12.9222 29.656 8.98424 14.1341 27.0555 11.0929 14.2017 26.3499 11.2857 
14.1654 27.52 10.8758 14.1995 25.7058 11.5183 14.36 25.1059 11.6037 
14.2298 28.3058 10.2686 14.5947 24.3683 11.7266 14.9485 23.5068 11.9085 
15.3749 22.7388 12.1261 15.9658 22.3153 12.1086 16.238 22.4819 11.443 
13.9433 29.6401 10.2592 13.45 30.2788 9.38458 13.7983 27.0389 11.4344 
13.836 27.7319 11.1732 13.787 26.2271 11.705 13.7878 28.3593 11.0219 
13.8409 25.3972 11.94 13.9805 24.6459 12.111 13.6448 29.1831 10.9761 
14.2267 23.885 12.2573 13.465 30.2775 10.9389 13.2541 26.9567 11.8733 
13.3552 27.7877 11.5664 13.4881 28.3386 11.3105 13.2011 25.991 12.1888 
13.3295 28.9409 11.3025 13.2552 25.0547 12.4587 13.4179 24.2267 12.6587 
13.1966 29.7652 11.257 12.4882 26.8026 12.3602 12.6752 27.824 12.0084 
12.9586 28.5802 11.6564 12.407 25.7358 12.6933 12.7778 29.366 11.6377 
12.4719 24.746 12.9738 12.7419 30.2875 11.5673 13.0841 30.8586 11.2639 
11.4571 26.5291 12.8708 11.7556 27.6517 12.5212 12.1175 28.797 12.1372 
11.3223 25.4339 13.175 12.1605 29.8721 11.9863 10.0625 26.1264 13.2938 
10.5524 27.2731 13.0229 10.9863 28.4036 12.732 11.246 29.5008 12.5069 
9.95959 24.909 13.5156 11.4304 24.3572 13.4447 12.269 30.7509 11.882 
11.563 30.5692 12.2997 8.16315 25.5856 13.366 9.13975 27.0106 13.3107 
9.86868 27.9964 13.1221 10.0591 29.0513 12.9926 10.5056 30.2129 12.7934 
8.7871 28.3397 13.2698 7.64141 27.2757 13.2559 7.36459 29.0536 13.2322 
9.17342 29.7062 13.175 10.0427 31.0541 12.9845 8.65277 30.63 13.2741 
18.2109 11.8203 15.5199 18.5654 11.77 15.5563 18.2237 11.7447 15.9497 
18.1777 12.0086 14.975 18.6124 11.9031 15.1684 17.7643 11.8677 15.467 
17.8606 11.7913 15.9305 18.9576 11.7988 15.2983 17.8011 12.2798 14.4221 
18.5132 12.3823 14.3423 17.4457 12.0165 15.0206 19.0008 11.9824 14.9183 
17.4662 11.8437 15.8829 17.1519 11.9223 15.5062 19.2681 11.8399 15.0857 
19.3312 11.6716 15.4318 19.1368 11.6528 15.6348 17.0218 12.1693 14.6435 
17.2365 12.5954 13.8276 19.1074 12.1749 14.6095 18.7564 12.1277 14.721 
19.3134 12.0473 14.7407 16.5168 12.0114 15.6799 16.8597 12.0335 15.1498 
19.5949 11.8487 14.9452 19.6113 11.6552 15.3041 19.683 11.5385 15.5828 
19.4889 11.545 15.7356 19.0616 11.6114 15.8979 19.2912 11.5655 15.8855 
18.8562 11.698 15.6566 19.0164 12.4392 14.2934 19.3786 12.35 14.363 
19.6833 12.1401 14.5387 20.0734 11.8509 14.8042 20.003 11.6315 15.1831 
20.0286 11.4892 15.5246 19.966 11.4188 15.8428 19.6723 11.4536 16.0471 
19.3088 11.534 16.1583 18.9806 11.607 16.3055 18.8175 11.6429 16.007 
18.5584 11.6927 15.9697 20.6877 11.8336 14.7601 20.4918 11.5911 15.1639 
20.432 11.4996 16.5375 19.8915 11.5898 16.7466 19.3695 11.7205 16.8834 
18.9223 11.8722 16.984 18.65 11.6908 16.4362 18.2946 11.7571 16.4508 
20.1353 12.1796 17.1451 19.7172 12.2761 17.2542 18.513 11.9887 17.0402 
19.3087 12.3669 17.3302 19.5045 12.6333 17.3837 18.9134 12.4508 17.38 
18.4989 12.5939 17.4371 20.9749 12.4422 14.2364 20.8406 12.0929 14.481 
20.5423 12.5488 14.1344 21.4283 12.2898 14.4264 6.06878 22.3378 12.0414 
6.58889 22.6362 12.6109 5.80139 23.315 12.0445 8.59517 24.0151 13.5387 
7.10312 24.3037 13.0628 7.45336 23.1484 13.1894 5.64709 28.8096 12.655 
4.69657 29.8261 12.0917 4.66416 28.9068 11.9332 5.81089 29.971 12.8306 
16.4591 12.276 14.4036 16.4761 12.0913 15.0613 16.0255 12.1625 14.9703 
20.4577 13.0352 13.8639 20.4659 13.6428 13.6254 21.1102 13.2805 13.8824 
13.6715 15.9186 10.3736 12.6558 16.8151 9.90177 14.6205 16.743 10.1025 
21.051 11.6045 15.1347 21.5054 11.6068 15.9199 20.742 11.4568 15.5337 
20.9815 11.4652 16.2479 20.4197 11.4059 15.7444 20.3759 11.4807 15.4584 
23.1939 54.1673 14.9971 22.479 54.3807 14.4027 22.4689 53.792 14.8828 
7.25733 30.7038 8.0031 6.37273 30.042 8.14804 6.10988 31.3775 8.16489 
14.1994 46.3342 15.6941 14.8605 46.8741 15.6076 14.0111 47.7149 15.6912 
7.59043 33.6327 13.6764 7.43026 34.877 13.8702 5.96139 34.2753 13.4581 
7.07223 49.2067 9.62926 6.95471 50.0297 9.96775 7.80972 49.6634 9.19375 
8.18038 50.7147 13.8581 7.44654 50.7619 13.3556 7.48778 49.8838 13.9416 
6.23614 49.3732 10.6092 6.46067 50.9985 11.8156 6.80839 49.8232 13.4938 
6.55948 48.4341 9.92797 7.0997 48.9751 14.1198 12.5796 36.3182 8.60226 
12.8442 35.4273 8.81189 12.0844 35.514 8.43343 12.4673 35.2017 12.4298 
13.0737 35.2497 11.9988 12.9881 36.0546 12.2497 13.2759 36.126 9.02093 
13.3782 35.3429 9.20347 13.5043 35.2434 11.5954 13.495 35.985 11.7829 
13.0572 36.8374 8.79914 13.422 36.6152 12.0186 8.17247 49.9782 9.00125 
7.376 50.7707 9.83051 8.79983 50.5364 8.71762 9.17073 51.8597 13.3985 
7.90629 51.5653 12.9291 8.61092 51.4101 13.5365 7.25999 51.9022 11.4838 
8.11045 51.5676 9.50959 8.56607 52.2001 12.7563 8.01562 52.698 11.2092 
5.86153 49.8382 12.1202 5.89262 48.6186 10.9044 5.51964 48.7741 12.0716 
6.34478 48.8666 13.5852 13.2999 33.8255 9.33018 13.6416 34.7175 9.5931 
13.7762 33.7108 10.3719 13.6742 34.6481 11.2183 13.3362 33.6761 11.3871 
13.1167 34.613 9.08252 13.2295 34.4712 11.6953 12.8422 33.9487 8.94054 
12.9431 33.7374 11.7786 5.58454 47.4427 10.7868 5.39843 46.6805 10.5979 
5.01225 47.0483 11.8239 5.22606 46.2418 13.0104 5.56446 47.0717 13.3179 
5.87053 47.008 10.1742 5.79294 46.2668 9.94451 5.52324 45.8019 13.5005 
5.86887 46.5234 13.7725 6.13988 47.6862 10.167 6.36264 47.3101 14.1138 
5.24645 45.9525 10.3718 4.97613 45.5828 12.7587 4.7709 46.2097 11.6594 
4.52978 45.3801 11.4863 10.0171 49.6413 8.171 10.1895 51.5439 14.0284 
9.36531 49.3438 8.3852 9.64747 50.9748 14.2972 11.6616 48.9653 7.90271 
11.6704 50.8646 14.7524 6.35366 48.0181 10.0562 6.80241 48.1813 14.2373 
5.75631 48.0801 10.8739 5.91721 47.9761 13.5196 7.39366 47.5822 9.10539 
7.70197 47.7808 8.95355 9.42772 47.1297 8.24642 9.36285 47.6363 15.5241 
8.00533 48.3909 14.8433 7.58496 47.5333 14.8619 5.26757 47.8903 11.9634 
15.7401 43.46 8.72253 15.1267 43.0701 8.62169 14.4736 43.9901 8.36212 
14.4873 42.6764 14.4929 15.0253 41.7881 13.7824 15.3297 42.1816 14.0162 
16.224 42.5787 9.04452 15.6697 42.3538 8.90494 15.4812 41.2372 13.2148 
15.7283 41.4075 13.3101 16.8478 42.661 9.26368 16.1252 41.653 13.487 
10.4047 48.6812 8.0901 10.5079 50.1658 14.9555 8.52445 49.0686 8.6992 
8.77265 50.0963 14.4967 9.4408 48.4168 8.31064 9.50624 49.4711 15.0164 
14.5044 56.5019 8.73585 13.4341 56.9159 9.95249 14.6111 57.3787 9.90924 
14.4008 56.6889 10.899 13.4619 56.1115 8.75961 12.2625 56.368 10.1025 
13.5268 56.3085 10.9657 14.885 55.5637 8.22534 14.4985 56.1647 11.4315 
16.3212 40.9727 9.7901 16.4975 41.6519 9.48919 16.8144 40.6552 11.2295 
16.0405 40.8734 12.6567 16.0244 40.4514 12.0823 15.6027 41.7876 9.02824 
15.5007 40.8008 12.805 15.4944 41.25 9.15195 15.4643 40.4273 12.4297 
21.1433 54.6876 10.3114 20.8408 55.0216 10.1545 21.3856 54.9872 10.4684 
20.417 55.6377 13.3045 19.7185 55.7988 13.1183 20.0605 55.279 13.4358 
20.3524 54.7283 9.85547 20.1132 55.2559 9.72969 18.9174 56.1159 12.7687 
19.0503 55.4845 13.1687 20.8345 54.2391 10.11 19.6053 54.8476 13.5408 
15.8214 55.9045 8.33281 15.3248 56.5269 11.391 15.6372 56.8719 8.79009 
16.6049 56.3099 8.51429 15.9357 56.776 11.3835 15.3692 57.0265 10.9456 
12.5118 55.6068 8.7397 12.7625 55.9372 11.1655 14.0873 55.2105 8.14914 
13.3084 54.6868 8.09658 13.3944 55.5424 11.6946 13.9047 55.8544 11.5157 
15.7862 57.7475 10.0349 16.773 57.1263 8.94415 16.2058 57.2366 11.1107 
16.9862 57.9644 10.2244 8.87322 53.6366 10.9131 8.98256 52.4495 9.27729 
9.36696 52.9682 12.5262 9.85782 53.286 9.06324 10.5139 52.1447 8.33639 
10.6963 53.1561 13.0037 10.2191 53.8136 12.266 9.9349 54.7245 10.5659 
9.62171 51.3924 8.51394 9.85167 52.4678 13.2018 10.5827 50.4762 8.0702 
10.5906 52.054 13.7676 11.9009 49.807 7.86927 11.7272 51.6471 14.2794 
12.1053 50.5251 7.87535 11.8822 52.2209 13.9379 10.924 53.8943 8.64959 
12.4914 53.9709 8.10777 12.07 53.1814 8.07308 12.3027 54.3463 12.5385 
12.7166 54.9951 12.0837 11.3174 54.6044 12.096 11.5376 54.8459 8.75063 
11.9131 55.3766 11.5362 11.3039 52.714 8.19619 11.5262 53.7998 12.791 
22.7485 49.0745 11.7425 23.0193 49.7214 11.8204 23.8098 48.743 13.0011 
20.9895 50.7864 16.6203 20.6085 51.8347 15.6725 19.8191 50.9687 16.0004 
21.965 49.9962 11.0009 21.9139 50.838 10.8465 19.9458 52.5047 14.7739 
19.4779 51.8243 15.1619 21.8531 49.3306 10.9796 18.9257 51.058 15.4662 
14.14 53.6646 7.85348 13.9337 54.9307 12.2857 13.4283 52.965 7.84612 
[...]
CELL_DATA 170
FIELD FieldData 3
p-cluster-area 1 170 float
0.005 0.005 0.005 0.005 0.005 0.005 0.005 0.005 0.005 
0.005 0.005 0.005 0.005 0.005 0.005 0.005 0.005 0.005 
0.005 0.005 0.005 0.005 0.005 0.005 0.005 0.005 0.005 
0.005 0.005 0.005 0.005 0.005 0.005 0.005 0.005 0.005 
0.005 0.005 0.005 0.005 0.005 0.005 0.005 0.005 0.005 
0.005 0.005 0.005 0.005 0.005 0.005 0.005 0.005 0.005 
0.005 0.005 0.005 0.005 0.005 0.005 0.005 0.005 0.005 
0.005 0.005 0.005 0.005 0.005 0.005 0.005 0.005 0.005 
0.005 0.005 0.005 0.15 0.15 0.15 0.15 0.15 0.15 
0.15 0.15 0.15 0.15 0.15 0.15 0.15 0.15 0.15 
0.15 0.15 0.15 0.15 0.15 0.15 0.15 0.15 0.15 
0.15 0.15 0.15 0.15 0.15 0.15 0.15 0.15 0.15 
0.15 0.15 0.15 0.15 0.15 0.15 0.15 0.15 0.15 
0.15 0.15 0.15 0.15 0.15 0.15 0.15 0.15 0.15 
0.15 0.15 0.15 1 1 1 1 1 1 
1 0.9675 0.9675 0.9675 0.825 0.825 0.825 0.825 1 
1 1 1 1 1 0.9475 0.9475 0.9475 1 
1 1 1 1 1 1 1 1 0.995 
0.995 0.995 1 1 1 0.9125 0.9125 0.9125 
p-cluster-power 1 170 float
0.0075 0.0075 0.0075 0.0075 0.0075 0.0075 0.0075 0.0075 0.0075 
0.0075 0.0075 0.0075 0.0075 0.0075 0.0075 0.0075 0.0075 0.0075 
0.0075 0.0075 0.0075 0.0075 0.0075 0.0075 0.0075 0.0075 0.0075 
0.0075 0.0075 0.0075 0.0075 0.0075 0.0075 0.0075 0.0075 0.0075 
0.0075 0.0075 0.0075 0.0075 0.0075 0.0075 0.0075 0.0075 0.0075 
0.0075 0.0075 0.0075 0.0075 0.0075 0.0075 0.0075 0.0075 0.0075 
0.0075 0.0075 0.0075 0.0075 0.0075 0.0075 0.0075 0.0075 0.0075 
0.0075 0.0075 0.0075 0.0075 0.0075 0.0075 0.0075 0.0075 0.0075 
0.0075 0.0075 0.0075 0.15 0.15 0.15 0.15 0.15 0.15 
0.15 0.15 0.15 0.15 0.15 0.15 0.15 0.15 0.15 
0.15 0.15 0.15 0.15 0.15 0.15 0.15 0.15 0.15 
0.15 0.15 0.15 0.15 0.15 0.15 0.15 0.15 0.15 
0.15 0.15 0.15 0.15 0.15 0.15 0.15 0.15 0.15 
0.15 0.15 0.15 0.15 0.15 0.15 0.15 0.15 0.15 
0.15 0.15 0.15 1 1 1 1 1 1 
1 0.92 0.92 0.92 0.74 0.74 0.74 0.74 1 
1 1 1 1 1 0.975 0.975 0.975 1 
1 1 1 1 1 1 1 1 1 
1 1 1 1 1 0.935 0.935 0.935 
RegionId 1 170 float
0 0 0 0 0 0 0 0 0 
0 0 0 0 0 0 0 0 0 
0 0 0 0 0 0 0 0 0 
0 0 0 0 0 0 0 0 0 
0 0 0 0 0 0 0 0 0 
0 0 0 0 0 0 0 0 0 
0 0 0 0 0 0 0 0 0 
0 0 0 0 0 0 0 0 0 
0 0 0 1 1 1 1 1 1 
1 1 1 1 1 1 1 1 1 
1 1 1 1 1 1 1 1 1 
1 1 1 1 1 1 1 1 1 
1 1 1 1 1 1 1 1 1 
1 1 1 1 1 1 1 1 1 
1 1 1 2 2 2 2 3 3 
3 4 4 4 5 5 5 5 6 
6 6 7 7 7 8 8 8 9 
9 9 9 9 9 10 10 10 11 
11 11 12 12 12 13 13 13 
