# vtk DataFile Version 3.0
vtk output
ASCII
DATASET UNSTRUCTURED_GRID
POINTS 8911 float
8.15774 27.8623 8.15799 7.98472 27.8077 8.12781 7.9686 27.8099 8.36923 
8.71236 27.6416 8.30004 8.31122 26.9074 8.2996 8.0393 27.5323 8.89444 
8.09643 27.9139 9.34173 8.13869 28.2335 9.09852 7.98718 27.9393 8.5149 
8.4437 28.1373 8.56307 8.78432 28.2333 8.20064 7.61954 27.5294 8.18376 
7.18272 26.9394 8.30032 7.76059 27.6368 8.77223 7.68736 27.9052 9.18307 
7.10484 27.1114 8.3003 7.70448 28.0395 9.33938 9.40768 27.1762 8.29964 
8.89005 26.9168 9.24173 9.22361 27.6527 8.97864 9.38666 28.137 8.29974 
8.9897 28.5693 8.84797 8.98732 28.574 8.83456 8.97445 28.57 8.84731 
9.30064 28.2497 8.26734 8.38441 27.2206 9.2576 7.73431 26.4586 9.11395 
8.63916 26.2014 8.98292 9.02792 26.3548 8.29948 7.71294 25.7278 8.2998 
7.17142 27.2205 9.20994 7.73803 27.4788 9.51829 7.11874 27.3091 9.11159 
7.53365 28.0131 9.36474 7.3236 27.6326 9.26964 8.57727 27.6719 9.58506 
7.60005 27.8287 10.1929 8.38937 28.1951 10.3234 7.51061 28.072 9.44184 
7.99034 28.453 9.47567 8.0306 28.3805 9.41346 8.54446 28.5458 9.80686 
8.04889 28.4652 9.51177 8.29325 28.5204 9.6284 8.96536 28.1965 9.41062 
8.4891 28.5556 9.65241 6.96319 27.0807 8.6852 7.00764 26.9487 8.32699 
6.71186 27.0899 9.35291 6.45427 26.9811 9.37479 7.03802 26.5458 9.27837 
6.37542 26.7219 9.36598 6.70052 26.242 8.49988 6.31268 26.601 8.49996 
6.29009 26.7706 9.21931 7.01064 27.2516 9.25671 10.2558 27.9214 8.30004 
10.1884 26.9 8.32284 10.1479 27.4408 9.4385 9.84109 26.6732 9.10977 
9.50498 27.1268 9.56785 9.17721 27.6309 9.57784 9.36742 25.9223 9.16585 
8.81441 25.7512 9.35227 9.14492 26.3931 9.65226 8.26776 26.7046 9.51905 
8.67918 27.0842 9.87409 9.54519 28.0793 9.7366 9.55216 28.2473 9.07185 
9.3672 28.3194 8.3822 8.99423 28.582 8.84779 10.0139 28.599 8.30023 
9.54936 28.3546 8.29991 9.78313 28.6254 8.59107 9.5117 28.8498 9.11404 
9.50016 28.8716 9.10136 9.55423 28.8502 9.02986 8.98539 28.5795 8.85647 
8.58147 28.6321 9.72076 9.47174 28.8622 9.12273 8.03965 27.1344 10.041 
7.02819 25.858 9.34564 7.95753 25.8926 9.42048 7.55438 26.5407 9.87348 
9.08198 25.4514 8.30002 8.08142 25.044 8.49984 8.76355 25.1754 9.16314 
10.1295 26.093 8.50024 7.1862 24.9 8.57244 7.60446 25.4251 9.07287 
6.49034 25.4208 8.70034 6.64174 27.2451 9.49113 6.87945 26.9639 9.80542 
7.01661 27.5605 9.29908 6.72485 27.4393 9.49758 7.10644 27.6773 9.75831 
6.8083 28.0887 9.53396 7.43993 28.0418 9.40069 7.37883 27.0839 10.2956 
8.65276 27.5829 10.2637 9.02539 28.0854 10.3631 6.76322 28.07 10.2497 
7.36757 28.4316 9.99831 7.17608 28.2975 10.7566 7.83697 28.4027 10.5797 
8.12083 27.6771 10.5944 7.46614 28.1857 9.5004 7.93129 28.4844 9.50391 
7.36939 27.634 10.7965 6.81703 27.4741 10.4981 8.53718 28.6649 10.7374 
8.17092 28.742 9.94952 7.98095 28.8494 10.0834 7.96511 28.8275 10.0521 
8.40423 28.1016 10.9264 7.93787 28.846 10.0566 7.89807 28.8298 10.0342 
8.5692 28.8297 10.0079 8.62073 28.683 9.80284 9.0754 28.7523 10.3084 
8.6875 29.1525 10.299 9.06604 29.14 10.0228 9.2079 29.0363 9.70958 
9.28401 28.8161 9.67392 8.50947 28.616 9.7797 9.4894 28.8803 9.14676 
8.59517 29.1565 10.3596 6.13332 27.1466 9.82824 6.17032 26.9215 9.55821 
6.26488 25.8429 9.45082 6.8221 26.2728 9.96271 5.92827 27.0642 9.86374 
5.86752 26.4951 9.10178 6.1002 26.6043 9.95065 5.86412 26.1042 8.7003 
5.86516 26.2298 8.6725 10.0129 28.7175 8.58403 10.3845 28.7433 8.39085 
10.2038 28.4283 9.18494 10.9384 28.6106 8.49948 10.9789 27.4006 9.33081 
10.9299 27.2242 8.50022 10.8133 28.0873 9.51511 10.3157 27.3461 10.219 
10.2654 27.9368 9.88742 10.6402 27.1218 9.75418 9.58855 27.5077 10.2544 
10.1011 26.8392 9.78964 10.8286 26.6869 9.35984 10.3188 26.2661 9.32083 
9.86525 26.1823 9.79599 9.222 26.8622 10.1831 10.2904 25.6051 9.35032 
9.86374 25.3196 8.50004 9.23309 25.8246 10.1022 9.68639 25.5482 9.60062 
8.51401 26.0817 9.76505 8.201 25.3466 9.81778 8.89327 25.2701 9.85076 
7.97769 26.1416 10.0375 8.51522 26.6056 10.322 8.35146 27.1058 10.6462 
9.84882 29.1852 9.48865 10.1377 29.0206 9.94608 10.0398 28.0387 10.5199 
9.73599 28.7124 10.1978 9.5225 28.3179 10.5829 10.5114 28.6006 10.0075 
9.79332 29.1984 9.42726 9.86362 29.119 9.25095 9.76917 29.2139 9.51798 
7.82903 26.7969 10.7636 7.52318 25.7584 9.92787 6.954 25.105 9.49178 
6.66296 25.5533 10.0005 7.314 26.1912 10.3029 7.65527 25.2764 9.63197 
9.50282 24.2698 8.50036 8.65976 24.4882 8.50018 8.40393 24.5829 9.68866 
7.82302 24.3 8.6517 7.49191 24.5618 9.31349 8.98822 24.6849 9.48369 
9.57374 24.9051 9.53375 11.3451 25.9172 8.70028 10.5851 24.9348 8.4998 
6.2999 24.6212 8.96334 7.00542 24.1052 8.9 5.6592 25.2932 9.09982 
6.30155 27.7314 9.88954 6.485 27.4555 9.53679 6.00566 27.3708 9.85263 
6.46121 26.9456 10.3803 5.95988 27.1713 9.91596 6.62716 28.1008 9.56356 
6.72737 28.1894 9.57443 6.94843 28.2865 9.65468 6.81475 26.8787 11.0294 
7.21097 26.2662 10.8928 7.29277 26.673 11.3221 6.60124 26.3205 10.6018 
8.82387 27.4762 10.8641 9.68088 27.3992 10.9864 8.83766 27.9697 11.3332 
9.20425 28.4725 11.0566 6.52605 28.4231 10.9587 6.72541 27.9916 11.3743 
6.63037 28.7829 9.99339 6.70925 28.7665 9.98558 6.64717 28.7889 10.0144 
6.16835 27.9887 9.89921 6.31343 28.2224 10.0531 6.20685 28.5513 10.4466 
6.62269 28.7983 10.0113 6.59177 28.7883 10.0212 5.88866 27.5488 10.335 
6.12705 28.4702 10.2492 5.94422 27.9748 10.1049 6.2685 27.6555 10.7913 
7.34869 28.5616 9.70534 7.3384 28.9133 9.87638 6.99803 29.1939 10.5146 
7.63905 29.1841 10.5021 7.87209 28.9364 10.144 7.52745 29.1739 10.259 
7.22293 29.1672 10.0316 6.66347 28.8483 10.0381 6.64095 28.8095 10.0277 
6.97861 28.818 10.9834 7.82419 28.4764 11.1643 7.51641 28.1527 11.5487 
7.86742 27.77 11.1747 8.27141 27.2773 11.2347 7.20603 27.5861 11.4307 
7.65388 27.1117 11.5056 9.19569 29.2706 10.7171 9.1865 29.274 11.3118 
8.26155 29.4337 10.7809 8.26004 29.258 10.5931 7.80461 29.3022 10.51 
8.48034 29.2646 11.2076 8.34409 28.4271 11.4374 8.92406 28.8478 11.633 
8.91191 29.2549 10.5154 8.58298 29.2426 10.4564 8.46825 27.6345 11.7967 
9.79161 29.1916 10.8479 9.65848 29.3854 10.1513 9.57399 29.3279 10.1 
9.65323 29.3322 10.0848 9.45829 29.3511 10.338 9.55587 29.2639 9.97456 
9.1698 29.3081 10.5408 9.76508 29.2758 9.7258 5.59013 26.3708 10.1502 
5.63636 26.5467 10.0752 5.61844 26.3988 9.99512 5.98183 25.8627 10.2496 
5.86652 25.1279 9.84301 5.21994 25.8626 9.18526 5.22098 25.8775 9.30858 
5.28871 25.9895 9.24778 5.28088 25.986 9.42195 5.58539 26.0727 8.88574 
5.73563 26.2419 9.16351 5.83258 27.1263 10.1278 5.73506 26.9277 10.8187 
5.55578 26.6557 10.3453 5.81319 26.1935 8.7156 6.07963 26.2348 10.9171 
5.613 26.4579 10.3065 10.313 28.8593 8.85393 10.6954 28.8645 9.39656 
10.9141 28.8955 8.44866 10.8886 29.0677 8.90549 10.7585 29.1624 9.36316 
10.9878 29.2621 9.41561 11.3164 28.6637 9.62173 11.2349 29.3835 9.46677 
11.8 29.1668 9.67361 11.7647 29.2356 9.04315 11.3885 28.9801 8.61122 
11.7801 29.0261 8.69984 11.8969 28.1964 8.6999 11.829 26.6914 9.62922 
11.815 27.5933 10.0874 11.2216 26.9957 9.88765 11.0474 27.6632 10.1169 
12.2397 27.3508 9.49081 11.5433 27.8566 9.41164 12.6083 27.7214 8.89976 
11.603 26.7338 8.69952 11.1306 28.3512 10.2209 10.7344 26.7926 10.3676 
10.6902 27.6554 10.6978 10.0904 26.7085 10.6538 9.64474 26.4282 10.3229 
10.3494 26.3219 10.1832 10.6754 26.1086 9.75191 11.2432 26.2118 9.82047 
9.85187 25.458 10.2293 10.3542 25.6683 9.9539 8.90221 26.1004 10.7457 
9.4651 26.8223 10.783 8.92312 26.961 11.1774 10.0697 24.6476 9.7462 
10.4311 24.9402 9.37046 10.5054 25.0822 10.0313 10.9537 25.5846 9.55583 
10.2337 24.2942 9.2928 9.09684 25.2263 10.5336 8.54922 25.699 10.3257 
9.70096 26.0176 10.7865 9.63875 25.3766 10.8547 9.58053 24.8775 10.1761 
8.5814 24.7678 10.2413 8.25619 25.146 10.591 8.06325 24.9094 10.1369 
9.09959 24.451 10.1939 8.02243 26.0071 10.6251 8.40297 26.3906 10.8579 
8.45859 26.6278 11.3933 10.1744 29.3281 9.72514 9.76039 29.3159 10.0415 
9.90204 29.2619 9.48203 9.81798 29.2299 9.47521 10.508 29.2033 9.41464 
10.2002 29.3361 10.4112 10.7098 29.354 9.9629 10.5378 29.4835 9.7796 
10.2094 29.5038 9.99004 9.7768 29.3905 10.1527 10.3836 28.6793 10.7574 
10.3653 27.9653 11.2113 10.9029 28.2641 10.9655 9.71661 28.0524 11.0998 
9.98082 28.5576 11.1449 10.6607 29.4567 10.6926 11.0494 29.114 10.4997 
11.442 28.9811 10.0922 7.76708 26.2996 11.0571 7.51939 24.9376 10.0836 
7.41881 25.6781 10.603 6.99691 24.2925 10.178 6.49258 24.8191 10.0766 
6.9189 25.2057 10.5989 6.26291 25.4015 10.7308 7.83507 24.5675 9.77569 
10.6266 23.6774 8.50034 8.74234 23.6212 8.49974 9.00449 24.0832 9.30617 
9.62592 24.176 9.72632 9.4441 23.6581 9.34854 10.0058 23.4771 9.18267 
9.62184 23.1334 8.49998 8.33557 23.6745 9.34367 7.7689 23.9957 9.78139 
8.30566 24.2879 10.4957 8.75286 24.1301 9.83887 7.8606 23.3 8.84366 
12.0941 26.13 8.89998 11.8102 25.2328 8.6999 11.6457 25.6208 9.50665 
11.7114 24.411 8.70002 11.0873 24.903 9.5447 5.64514 24.4528 9.49972 
6.18659 24.1496 10.0823 6.27688 23.8268 9.2999 6.90846 23.0572 9.09996 
7.02571 23.6911 9.60914 5.15256 25.0159 9.76251 5.11623 25.1124 9.75672 
5.1144 25.1013 9.80359 6.24187 27.7416 9.69659 5.87701 27.2842 9.94538 
6.24562 26.5789 11.3996 6.1365 27.2098 11.2547 6.81593 27.1455 11.722 
6.80081 26.3451 11.4469 6.54893 25.8974 11.1287 7.2262 25.5672 11.1746 
7.34739 26.4159 11.8582 7.38209 25.7941 11.7226 7.94342 26.6096 11.7624 
7.43775 27.107 12.3237 9.15739 27.3804 11.5551 10.8269 27.0675 11.0154 
10.1642 26.7881 11.4172 9.40355 26.6623 11.4085 10.097 27.4828 11.7448 
9.96205 28.1266 11.7067 8.88685 28.2383 12.0558 9.39297 29.1489 11.9563 
9.60147 28.5485 12.0619 9.44511 27.7274 12.2407 9.68749 28.9696 11.4121 
6.09567 28.0792 11.1558 6.30064 28.6433 11.4124 6.60887 28.8006 10.057 
6.2005 27.7473 11.626 6.68754 28.5441 11.794 7.00363 27.9714 11.9407 
7.23999 28.7364 11.5186 6.02815 28.566 10.3925 6.04406 28.7896 10.4873 
5.73321 28.3052 10.7559 5.67611 28.3752 10.6349 5.79102 28.6412 10.656 
6.04082 28.8878 10.891 5.88714 28.2929 10.3365 5.62318 28.161 10.5269 
5.63018 27.7906 10.2472 6.16449 28.6452 10.3283 5.21622 27.5172 10.6227 
[...]
CELL_DATA 1931
FIELD FieldData 3
p-cluster-area 1 1931 float
0.025 0.025 0.025 0.025 0.025 0.025 0.025 0.025 0.025 
0.025 0.025 0.025 0.025 0.025 0.025 0.025 0.025 0.025 
0.025 0.025 0.025 0.025 0.025 0.025 0.025 0.025 0.025 
0.025 0.025 0.025 0.025 0.025 0.025 0.025 0.025 0.025 
0.025 0.025 0.025 0.025 0.025 0.025 0.025 0.025 0.025 
0.025 0.025 0.025 0.025 0.025 0.025 0.025 0.025 0.025 
0.025 0.025 0.025 0.025 0.025 0.025 0.025 0.025 0.025 
0.025 0.025 0.025 0.025 0.025 0.025 0.025 0.025 0.025 
0.025 0.025 0.025 0.025 0.025 0.025 0.025 0.025 0.025 
0.025 0.025 0.025 0.025 0.025 0.025 0.025 0.025 0.025 
0.025 0.025 0.025 0.025 0.025 0.025 0.025 0.025 0.025 
0.025 0.025 0.025 0.025 0.025 0.025 0.025 0.025 0.025 
0.025 0.025 0.025 0.025 0.025 0.025 0.025 0.025 0.025 
0.025 0.025 0.025 0.025 0.025 0.025 0.025 0.025 0.025 
0.025 0.025 0.025 0.025 0.025 0.025 0.025 0.025 0.025 
0.025 0.025 0.025 0.025 0.025 0.025 0.025 0.025 0.025 
0.025 0.025 0.025 0.025 0.025 0.025 0.025 0.025 0.025 
0.025 0.025 0.025 0.025 0.025 0.025 0.025 0.025 0.025 
0.025 0.025 0.025 0.025 0.025 0.025 0.025 0.025 0.025 
0.025 0.025 0.025 0.025 0.025 0.025 0.025 0.025 0.025 
0.025 0.025 0.025 0.025 0.025 0.025 0.025 0.025 0.025 
0.025 0.025 0.025 0.025 0.025 0.025 0.025 0.025 0.025 
0.025 0.025 0.025 0.025 0.025 0.025 0.025 0.025 0.025 
0.025 0.025 0.025 0.025 0.025 0.025 0.025 0.025 0.025 
0.025 0.025 0.025 0.025 0.025 0.025 0.025 0.025 0.025 
0.025 0.025 0.025 0.025 0.025 0.025 0.025 0.025 0.025 
0.025 0.025 0.025 0.025 0.025 0.025 0.025 0.025 0.025 
0.025 0.025 0.025 0.025 0.025 0.025 0.025 0.025 0.025 
0.025 0.025 0.025 0.025 0.025 0.025 0.025 0.025 0.025 
0.025 0.025 0.025 0.025 0.025 0.025 0.025 0.025 0.025 
0.025 0.025 0.025 0.025 0.025 0.025 0.025 0.025 0.025 
0.025 0.025 0.025 0.025 0.025 0.025 0.025 0.025 0.025 
0.025 0.025 0.025 0.025 0.025 0.025 0.025 0.025 0.025 
0.025 0.025 0.025 0.025 0.025 0.025 0.025 0.025 0.025 
0.025 0.025 0.025 0.025 0.025 0.025 0.025 0.025 0.025 
0.025 0.025 0.025 0.025 0.025 0.025 0.025 0.025 0.025 
0.025 0.025 0.025 0.025 0.025 0.025 0.025 0.025 0.025 
0.025 0.025 0.025 0.025 0.025 0.025 0.025 0.025 0.025 
0.025 0.025 0.025 0.025 0.025 0.025 0.025 0.025 0.025 
0.025 0.025 0.025 0.025 0.025 0.025 0.025 0.025 0.025 
0.025 0.025 0.025 0.025 0.025 0.025 0.025 0.025 0.025 
0.025 0.025 0.025 0.025 0.025 0.025 0.025 0.025 0.025 
0.025 0.025 0.025 0.025 0.025 0.025 0.025 0.025 0.025 
0.025 0.025 0.025 0.025 0.025 0.025 0.025 0.025 0.025 
0.025 0.025 0.025 0.025 0.025 0.025 0.025 0.025 0.025 
0.025 0.025 0.025 0.025 0.025 0.025 0.025 0.025 0.025 
0.025 0.025 0.025 0.025 0.025 0.025 0.025 0.025 0.025 
0.025 0.025 0.025 0.025 0.025 0.025 0.025 0.025 0.025 
0.025 0.025 0.025 0.025 0.025 0.025 0.025 0.025 0.025 
0.025 0.025 0.025 0.025 0.025 0.025 0.025 0.025 0.025 
0.025 0.025 0.025 0.025 0.025 0.025 0.025 0.025 0.025 
0.025 0.025 0.025 0.025 0.025 0.025 0.025 0.025 0.025 
0.025 0.025 0.025 0.025 0.025 0.025 0.025 0.025 0.025 
0.025 0.025 0.025 0.025 0.025 0.025 0.025 0.025 0.025 
0.025 0.025 0.025 0.025 0.025 0.025 0.025 0.025 0.025 
0.025 0.025 0.025 0.025 0.025 0.025 0.025 0.025 0.025 
0.025 0.025 0.025 0.025 0.025 0.025 0.025 0.025 0.025 
0.025 0.025 0.025 0.025 0.025 0.025 0.025 0.025 0.025 
0.025 0.025 0.025 0.025 0.025 0.025 0.025 0.025 0.025 
0.025 0.025 0.025 0.025 0.025 0.025 0.025 0.025 0.025 
0.025 0.025 0.025 0.025 0.025 0.025 0.025 0.025 0.025 
0.025 0.025 0.025 0.025 0.025 0.025 0.025 0.025 0.025 
0.025 0.025 0.025 0.025 0.025 0.025 0.025 0.025 0.025 
0.025 0.025 0.025 0.025 0.025 0.025 0.025 0.025 0.025 
0.025 0.025 0.025 0.025 0.025 0.025 0.025 0.025 0.025 
0.025 0.025 0.025 0.025 0.025 0.025 0.025 0.025 0.025 
0.025 0.025 0.025 0.025 0.025 0.025 0.025 0.025 0.025 
0.025 0.025 0.025 0.025 0.025 0.025 0.025 0.025 0.025 
0.025 0.025 0.025 0.025 0.025 0.025 0.025 0.025 0.025 
0.025 0.025 0.025 0.025 0.025 0.025 0.025 0.025 0.025 
0.025 0.025 0.025 0.025 0.025 0.025 0.025 0.025 0.025 
0.025 0.025 0.025 0.025 0.025 0.025 0.025 0.025 0.025 
0.025 0.025 0.025 0.025 0.025 0.025 0.025 0.025 0.025 
0.025 0.025 0.025 0.025 0.025 0.025 0.025 0.025 0.025 
0.025 0.025 0.025 0.025 0.025 0.025 0.025 0.025 0.025 
0.025 0.025 0.025 0.025 0.025 0.025 0.025 0.025 0.025 
0.025 0.025 0.025 0.025 0.025 0.025 0.025 0.025 0.025 
0.025 0.025 0.025 0.025 0.025 0.025 0.025 0.025 0.025 
0.025 0.025 0.025 0.025 0.025 0.025 0.025 0.025 0.025 
0.025 0.025 0.025 0.025 0.025 0.025 0.025 0.025 0.025 
0.025 0.025 0.025 0.025 0.025 0.025 0.025 0.025 0.025 
0.025 0.025 0.025 0.025 0.025 0.025 0.025 0.025 0.025 
0.025 0.025 0.025 0.025 0.025 0.025 0.025 0.025 0.025 
0.025 0.025 0.025 0.025 0.025 0.025 0.025 0.025 0.025 
0.025 0.025 0.025 0.025 0.025 0.025 0.025 0.025 0.025 
0.025 0.025 0.025 0.025 0.025 0.025 0.025 0.025 0.025 
0.025 0.025 0.025 0.025 0.025 0.025 0.025 0.025 0.025 
0.025 0.025 0.025 0.025 0.025 0.025 0.025 0.025 0.025 
0.025 0.025 0.025 0.025 0.025 0.025 0.025 0.025 0.025 
0.025 0.025 0.025 0.025 0.025 0.025 0.025 0.025 0.025 
0.025 0.025 0.025 0.025 0.025 0.025 0.025 0.025 0.025 
0.025 0.025 0.025 0.025 0.025 0.025 0.025 0.025 0.025 
0.025 0.025 0.025 0.025 0.025 0.025 0.025 0.025 0.025 
0.025 0.025 0.025 0.025 0.025 0.025 0.025 0.025 0.025 
0.025 0.025 0.025 0.025 0.025 0.025 0.025 0.025 0.025 
0.025 0.025 0.025 0.025 0.025 0.025 0.025 0.025 0.025 
0.025 0.025 0.025 0.025 0.025 0.025 0.025 0.025 0.025 
0.025 0.025 0.025 0.025 0.025 0.025 0.025 0.025 0.025 
0.025 0.025 0.025 0.025 0.025 0.025 0.025 0.025 0.025 
0.025 0.025 0.025 0.025 0.025 0.025 0.025 0.025 0.025 
0.025 0.025 0.025 0.025 0.025 0.025 0.025 0.025 0.025 
0.025 0.025 0.025 0.025 0.025 0.025 0.025 0.025 0.025 
0.025 0.025 0.025 0.025 0.025 0.025 0.025 0.025 0.025 
0.025 0.025 0.025 0.025 0.025 0.025 0.025 0.025 0.025 
0.025 0.025 0.025 0.025 0.025 0.025 0.025 0.025 0.025 
0.025 0.025 0.025 0.025 0.025 0.025 0.025 0.025 0.025 
0.025 0.025 0.025 0.025 0.025 0.025 0.025 0.025 0.025 
0.025 0.025 0.025 0.025 0.025 0.025 0.025 0.025 0.025 
0.025 0.025 0.025 0.025 0.025 0.025 0.025 0.025 0.025 
0.025 0.025 0.025 0.025 0.025 0.025 0.025 0.025 0.025 
0.025 0.025 0.025 0.025 0.025 0.025 0.025 0.025 0.025 
0.025 0.025 0.025 0.025 0.025 0.025 0.025 0.025 0.025 
0.025 0.025 0.025 0.025 0.025 0.025 0.025 0.025 0.025 
0.025 0.025 0.025 0.025 0.025 0.025 0.025 0.025 0.025 
0.025 0.025 0.025 0.025 0.025 0.025 0.025 0.025 0.025 
0.025 0.025 0.025 0.025 0.025 0.025 0.025 0.025 0.025 
0.025 0.025 0.025 0.025 0.025 0.025 0.025 0.025 0.025 
0.025 0.025 0.025 0.025 0.025 0.025 0.025 0.025 0.025 
0.025 0.025 0.025 0.025 0.025 0.025 0.025 0.025 0.025 
0.025 0.025 0.025 0.025 0.025 0.025 0.025 0.025 0.025 
0.025 0.025 0.025 0.025 0.025 0.025 0.025 0.025 0.025 
0.025 0.025 0.025 0.025 0.025 0.025 0.025 0.025 0.025 
0.025 0.025 0.025 0.025 0.025 0.025 0.025 0.025 0.025 
0.025 0.025 0.025 0.025 0.025 0.025 0.025 0.025 0.025 
0.025 0.025 0.025 0.025 0.025 0.025 0.025 0.025 0.025 
0.025 0.025 0.025 0.025 0.025 0.025 0.025 0.025 0.025 
0.025 0.025 0.025 0.025 0.025 0.025 0.025 0.025 0.025 
0.025 0.025 0.025 0.025 0.025 0.025 0.025 0.025 0.025 
0.025 0.025 0.025 0.025 0.025 0.025 0.025 0.025 0.025 
0.025 0.025 0.025 0.025 0.025 0.025 0.025 0.025 0.025 
0.025 0.025 0.025 0.025 0.025 0.025 0.025 0.025 0.025 
0.025 0.025 0.025 0.025 0.025 0.025 0.025 0.025 0.025 
0.025 0.025 0.025 0.025 0.025 0.025 0.025 0.025 0.025 
0.025 0.025 0.025 0.025 0.025 0.025 0.025 0.025 0.025 
0.025 0.025 0.025 0.025 0.025 0.025 0.025 0.025 0.025 
0.025 0.025 0.025 0.025 0.025 0.025 0.025 0.025 0.025 
0.025 0.025 0.025 0.025 0.025 0.025 0.025 0.025 0.025 
0.025 0.025 0.025 0.025 0.025 0.025 0.025 0.025 0.025 
0.025 0.025 0.025 0.025 0.025 0.025 0.025 0.025 0.025 
0.025 0.025 0.025 0.025 0.025 0.025 0.025 0.025 0.025 
0.025 0.025 0.025 0.025 0.025 0.025 0.025 0.025 0.025 
0.025 0.025 0.025 0.025 0.025 0.025 0.025 0.025 0.025 
0.025 0.025 0.025 0.025 0.025 0.025 0.025 0.025 0.025 
0.025 0.025 0.025 0.025 0.025 0.025 0.025 0.025 0.025 
0.025 0.025 0.025 0.025 0.025 0.025 0.025 0.025 0.025 
0.025 0.025 0.025 0.025 0.025 0.025 0.025 0.025 0.025 
0.025 0.025 0.025 0.025 0.025 0.025 0.025 0.025 0.025 
0.025 0.025 0.025 0.025 0.025 0.025 0.025 0.025 0.025 
0.025 0.025 0.025 0.025 0.025 0.025 0.025 0.025 0.025 
0.025 0.025 0.025 0.025 0.025 0.025 0.025 0.025 0.025 
0.025 0.025 0.025 0.025 0.025 0.025 0.025 0.025 0.025 
0.025 0.025 0.025 0.025 0.025 0.025 0.025 0.025 0.025 
0.025 0.025 0.025 0.025 0.025 0.025 0.025 0.025 0.025 
0.025 0.025 0.025 0.025 0.025 0.025 0.025 0.025 0.025 
0.025 0.025 0.025 0.025 0.025 0.025 0.025 0.025 0.025 
0.025 0.025 0.025 0.025 0.025 0.025 0.025 0.025 0.025 
0.025 0.025 0.025 0.025 0.025 0.025 0.025 0.025 0.025 
0.025 0.025 0.025 0.025 0.025 0.025 0.025 0.025 0.025 
0.025 0.025 0.025 0.025 0.025 0.025 0.025 0.025 0.025 
0.025 0.025 0.025 0.025 0.025 0.025 0.025 0.025 0.025 
0.025 0.025 0.025 0.025 0.025 0.025 0.025 0.025 0.025 
0.025 0.025 0.025 0.025 0.025 0.025 0.025 0.025 0.025 
0.025 0.025 0.025 0.025 0.025 0.025 0.025 0.025 0.025 
0.025 0.025 0.025 0.025 0.025 0.025 0.025 0.025 0.025 
0.025 0.025 0.025 0.025 0.025 0.025 0.025 0.025 0.025 
0.025 0.025 0.025 0.025 0.025 0.025 0.025 0.025 0.025 
0.025 0.025 0.025 0.025 0.025 0.025 0.025 0.025 0.025 
0.025 0.025 0.025 0.025 0.025 0.025 0.025 0.025 0.025 
0.025 0.025 0.025 0.025 0.025 0.025 0.025 0.025 0.025 
0.025 0.025 0.025 0.025 0.025 0.025 0.025 0.025 0.025 
0.025 0.025 0.025 0.025 0.025 0.025 0.025 0.025 0.025 
0.025 0.025 0.025 0.025 0.025 0.025 0.025 0.025 0.025 
0.025 0.025 0.025 0.025 0.025 0.025 0.025 0.025 0.025 
0.025 0.025 0.025 0.025 0.025 0.025 0.025 0.025 0.025 
0.025 0.025 0.025 0.025 0.025 0.025 0.025 0.025 0.025 
0.025 0.025 0.025 0.025 0.025 0.025 0.025 0.025 0.025 
0.025 0.025 0.025 0.025 0.025 0.025 0.025 0.025 0.025 
0.025 0.025 0.025 0.025 0.025 0.025 0.025 0.025 0.025 
0.025 0.025 0.025 0.025 0.025 0.025 0.025 0.025 0.025 
0.025 0.025 0.025 0.025 0.025 0.025 0.025 0.025 0.025 
0.025 0.025 0.025 0.025 0.025 0.025 0.025 0.025 0.025 
0.025 0.025 0.025 0.025 0.025 0.025 0.025 0.025 0.025 
0.025 0.025 0.025 0.025 0.025 0.025 0.025 0.025 0.025 
0.025 0.025 0.025 0.025 0.025 0.025 0.025 0.025 0.025 
0.025 0.025 0.025 0.025 0.025 0.025 0.025 0.025 0.025 
0.025 0.025 0.025 0.025 0.025 0.025 0.025 0.025 0.025 
0.025 0.025 0.025 0.025 0.025 0.025 0.025 0.025 0.025 
0.025 0.025 0.025 0.025 0.025 0.025 0.025 0.025 0.025 
0.025 0.025 0.025 0.025 0.025 0.025 0.025 0.025 0.025 
0.025 0.025 0.55 0.55 0.55 0.55 0.55 0.55 0.55 
0.55 0.55 0.55 0.55 0.55 0.55 0.55 0.55 0.55 
0.55 0.55 0.55 0.55 0.55 0.55 0.55 0.55 0.55 
0.55 0.55 0.55 0.55 0.55 0.55 0.55 0.55 0.55 
0.55 0.55 0.55 0.55 0.55 0.55 0.55 0.55 0.55 
0.55 0.55 0.55 0.55 0.55 0.55 0.55 0.55 0.55 
0.55 0.55 0.55 0.55 0.55 0.55 0.55 0.55 0.55 
0.55 0.55 0.55 0.55 0.55 0.55 0.55 0.55 0.55 
0.55 0.55 0.55 0.55 0.55 0.55 0.55 0.55 0.55 
0.55 0.55 0.55 0.55 0.55 0.55 0.55 0.55 0.55 
0.55 0.55 0.55 0.55 0.55 0.55 0.55 0.55 0.55 
0.55 0.55 0.55 0.55 0.55 0.55 0.55 0.55 0.55 
0.55 0.55 0.55 0.55 0.55 0.55 0.55 0.55 0.55 
0.55 0.55 0.55 0.55 0.55 0.55 0.55 0.55 0.55 
0.55 0.55 0.55 0.55 0.55 0.55 0.55 0.55 0.55 
0.55 0.55 0.55 0.55 0.55 0.55 0.55 0.55 0.55 
0.55 0.55 0.55 0.55 0.55 0.55 0.55 0.55 0.55 
0.55 0.55 0.55 0.55 0.55 0.55 0.55 0.55 0.55 
0.55 0.55 0.55 0.55 0.55 0.55 0.55 0.55 0.55 
0.55 0.55 0.55 0.55 0.55 0.55 0.55 0.55 0.55 
0.55 0.55 0.55 0.55 0.55 0.55 0.55 0.55 0.55 
0.55 0.55 0.875 0.875 0.875 0.875 0.875 0.875 0.875 
0.875 0.875 0.875 0.875 0.875 0.875 0.875 0.875 0.875 
0.875 0.875 0.875 0.875 0.875 0.875 0.875 0.875 0.875 
0.875 0.875 0.875 0.875 0.875 0.875 0.875 0.875 0.875 
0.875 0.875 0.875 0.875 0.875 
p-cluster-power 1 1931 float
0.025 0.025 0.025 0.025 0.025 0.025 0.025 0.025 0.025 
0.025 0.025 0.025 0.025 0.025 0.025 0.025 0.025 0.025 
0.025 0.025 0.025 0.025 0.025 0.025 0.025 0.025 0.025 
0.025 0.025 0.025 0.025 0.025 0.025 0.025 0.025 0.025 
0.025 0.025 0.025 0.025 0.025 0.025 0.025 0.025 0.025 
0.025 0.025 0.025 0.025 0.025 0.025 0.025 0.025 0.025 
0.025 0.025 0.025 0.025 0.025 0.025 0.025 0.025 0.025 
0.025 0.025 0.025 0.025 0.025 0.025 0.025 0.025 0.025 
0.025 0.025 0.025 0.025 0.025 0.025 0.025 0.025 0.025 
0.025 0.025 0.025 0.025 0.025 0.025 0.025 0.025 0.025 
0.025 0.025 0.025 0.025 0.025 0.025 0.025 0.025 0.025 
0.025 0.025 0.025 0.025 0.025 0.025 0.025 0.025 0.025 
0.025 0.025 0.025 0.025 0.025 0.025 0.025 0.025 0.025 
0.025 0.025 0.025 0.025 0.025 0.025 0.025 0.025 0.025 
0.025 0.025 0.025 0.025 0.025 0.025 0.025 0.025 0.025 
0.025 0.025 0.025 0.025 0.025 0.025 0.025 0.025 0.025 
0.025 0.025 0.025 0.025 0.025 0.025 0.025 0.025 0.025 
0.025 0.025 0.025 0.025 0.025 0.025 0.025 0.025 0.025 
0.025 0.025 0.025 0.025 0.025 0.025 0.025 0.025 0.025 
0.025 0.025 0.025 0.025 0.025 0.025 0.025 0.025 0.025 
0.025 0.025 0.025 0.025 0.025 0.025 0.025 0.025 0.025 
0.025 0.025 0.025 0.025 0.025 0.025 0.025 0.025 0.025 
0.025 0.025 0.025 0.025 0.025 0.025 0.025 0.025 0.025 
0.025 0.025 0.025 0.025 0.025 0.025 0.025 0.025 0.025 
0.025 0.025 0.025 0.025 0.025 0.025 0.025 0.025 0.025 
0.025 0.025 0.025 0.025 0.025 0.025 0.025 0.025 0.025 
0.025 0.025 0.025 0.025 0.025 0.025 0.025 0.025 0.025 
0.025 0.025 0.025 0.025 0.025 0.025 0.025 0.025 0.025 
0.025 0.025 0.025 0.025 0.025 0.025 0.025 0.025 0.025 
0.025 0.025 0.025 0.025 0.025 0.025 0.025 0.025 0.025 
0.025 0.025 0.025 0.025 0.025 0.025 0.025 0.025 0.025 
0.025 0.025 0.025 0.025 0.025 0.025 0.025 0.025 0.025 
0.025 0.025 0.025 0.025 0.025 0.025 0.025 0.025 0.025 
0.025 0.025 0.025 0.025 0.025 0.025 0.025 0.025 0.025 
0.025 0.025 0.025 0.025 0.025 0.025 0.025 0.025 0.025 
0.025 0.025 0.025 0.025 0.025 0.025 0.025 0.025 0.025 
0.025 0.025 0.025 0.025 0.025 0.025 0.025 0.025 0.025 
0.025 0.025 0.025 0.025 0.025 0.025 0.025 0.025 0.025 
0.025 0.025 0.025 0.025 0.025 0.025 0.025 0.025 0.025 
0.025 0.025 0.025 0.025 0.025 0.025 0.025 0.025 0.025 
0.025 0.025 0.025 0.025 0.025 0.025 0.025 0.025 0.025 
0.025 0.025 0.025 0.025 0.025 0.025 0.025 0.025 0.025 
0.025 0.025 0.025 0.025 0.025 0.025 0.025 0.025 0.025 
0.025 0.025 0.025 0.025 0.025 0.025 0.025 0.025 0.025 
0.025 0.025 0.025 0.025 0.025 0.025 0.025 0.025 0.025 
0.025 0.025 0.025 0.025 0.025 0.025 0.025 0.025 0.025 
0.025 0.025 0.025 0.025 0.025 0.025 0.025 0.025 0.025 
0.025 0.025 0.025 0.025 0.025 0.025 0.025 0.025 0.025 
0.025 0.025 0.025 0.025 0.025 0.025 0.025 0.025 0.025 
0.025 0.025 0.025 0.025 0.025 0.025 0.025 0.025 0.025 
0.025 0.025 0.025 0.025 0.025 0.025 0.025 0.025 0.025 
0.025 0.025 0.025 0.025 0.025 0.025 0.025 0.025 0.025 
0.025 0.025 0.025 0.025 0.025 0.025 0.025 0.025 0.025 
0.025 0.025 0.025 0.025 0.025 0.025 0.025 0.025 0.025 
0.025 0.025 0.025 0.025 0.025 0.025 0.025 0.025 0.025 
0.025 0.025 0.025 0.025 0.025 0.025 0.025 0.025 0.025 
0.025 0.025 0.025 0.025 0.025 0.025 0.025 0.025 0.025 
0.025 0.025 0.025 0.025 0.025 0.025 0.025 0.025 0.025 
0.025 0.025 0.025 0.025 0.025 0.025 0.025 0.025 0.025 
0.025 0.025 0.025 0.025 0.025 0.025 0.025 0.025 0.025 
0.025 0.025 0.025 0.025 0.025 0.025 0.025 0.025 0.025 
0.025 0.025 0.025 0.025 0.025 0.025 0.025 0.025 0.025 
0.025 0.025 0.025 0.025 0.025 0.025 0.025 0.025 0.025 
0.025 0.025 0.025 0.025 0.025 0.025 0.025 0.025 0.025 
0.025 0.025 0.025 0.025 0.025 0.025 0.025 0.025 0.025 
0.025 0.025 0.025 0.025 0.025 0.025 0.025 0.025 0.025 
0.025 0.025 0.025 0.025 0.025 0.025 0.025 0.025 0.025 
0.025 0.025 0.025 0.025 0.025 0.025 0.025 0.025 0.025 
0.025 0.025 0.025 0.025 0.025 0.025 0.025 0.025 0.025 
0.025 0.025 0.025 0.025 0.025 0.025 0.025 0.025 0.025 
0.025 0.025 0.025 0.025 0.025 0.025 0.025 0.025 0.025 
0.025 0.025 0.025 0.025 0.025 0.025 0.025 0.025 0.025 
0.025 0.025 0.025 0.025 0.025 0.025 0.025 0.025 0.025 
0.025 0.025 0.025 0.025 0.025 0.025 0.025 0.025 0.025 
0.025 0.025 0.025 0.025 0.025 0.025 0.025 0.025 0.025 
0.025 0.025 0.025 0.025 0.025 0.025 0.025 0.025 0.025 
0.025 0.025 0.025 0.025 0.025 0.025 0.025 0.025 0.025 
0.025 0.025 0.025 0.025 0.025 0.025 0.025 0.025 0.025 
0.025 0.025 0.025 0.025 0.025 0.025 0.025 0.025 0.025 
0.025 0.025 0.025 0.025 0.025 0.025 0.025 0.025 0.025 
0.025 0.025 0.025 0.025 0.025 0.025 0.025 0.025 0.025 
0.025 0.025 0.025 0.025 0.025 0.025 0.025 0.025 0.025 
0.025 0.025 0.025 0.025 0.025 0.025 0.025 0.025 0.025 
0.025 0.025 0.025 0.025 0.025 0.025 0.025 0.025 0.025 
0.025 0.025 0.025 0.025 0.025 0.025 0.025 0.025 0.025 
0.025 0.025 0.025 0.025 0.025 0.025 0.025 0.025 0.025 
0.025 0.025 0.025 0.025 0.025 0.025 0.025 0.025 0.025 
0.025 0.025 0.025 0.025 0.025 0.025 0.025 0.025 0.025 
0.025 0.025 0.025 0.025 0.025 0.025 0.025 0.025 0.025 
0.025 0.025 0.025 0.025 0.025 0.025 0.025 0.025 0.025 
0.025 0.025 0.025 0.025 0.025 0.025 0.025 0.025 0.025 
0.025 0.025 0.025 0.025 0.025 0.025 0.025 0.025 0.025 
0.025 0.025 0.025 0.025 0.025 0.025 0.025 0.025 0.025 
0.025 0.025 0.025 0.025 0.025 0.025 0.025 0.025 0.025 
0.025 0.025 0.025 0.025 0.025 0.025 0.025 0.025 0.025 
0.025 0.025 0.025 0.025 0.025 0.025 0.025 0.025 0.025 
0.025 0.025 0.025 0.025 0.025 0.025 0.025 0.025 0.025 
0.025 0.025 0.025 0.025 0.025 0.025 0.025 0.025 0.025 
0.025 0.025 0.025 0.025 0.025 0.025 0.025 0.025 0.025 
0.025 0.025 0.025 0.025 0.025 0.025 0.025 0.025 0.025 
0.025 0.025 0.025 0.025 0.025 0.025 0.025 0.025 0.025 
0.025 0.025 0.025 0.025 0.025 0.025 0.025 0.025 0.025 
0.025 0.025 0.025 0.025 0.025 0.025 0.025 0.025 0.025 
0.025 0.025 0.025 0.025 0.025 0.025 0.025 0.025 0.025 
0.025 0.025 0.025 0.025 0.025 0.025 0.025 0.025 0.025 
0.025 0.025 0.025 0.025 0.025 0.025 0.025 0.025 0.025 
0.025 0.025 0.025 0.025 0.025 0.025 0.025 0.025 0.025 
0.025 0.025 0.025 0.025 0.025 0.025 0.025 0.025 0.025 
0.025 0.025 0.025 0.025 0.025 0.025 0.025 0.025 0.025 
0.025 0.025 0.025 0.025 0.025 0.025 0.025 0.025 0.025 
0.025 0.025 0.025 0.025 0.025 0.025 0.025 0.025 0.025 
0.025 0.025 0.025 0.025 0.025 0.025 0.025 0.025 0.025 
0.025 0.025 0.025 0.025 0.025 0.025 0.025 0.025 0.025 
0.025 0.025 0.025 0.025 0.025 0.025 0.025 0.025 0.025 
0.025 0.025 0.025 0.025 0.025 0.025 0.025 0.025 0.025 
0.025 0.025 0.025 0.025 0.025 0.025 0.025 0.025 0.025 
0.025 0.025 0.025 0.025 0.025 0.025 0.025 0.025 0.025 
0.025 0.025 0.025 0.025 0.025 0.025 0.025 0.025 0.025 
0.025 0.025 0.025 0.025 0.025 0.025 0.025 0.025 0.025 
0.025 0.025 0.025 0.025 0.025 0.025 0.025 0.025 0.025 
0.025 0.025 0.025 0.025 0.025 0.025 0.025 0.025 0.025 
0.025 0.025 0.025 0.025 0.025 0.025 0.025 0.025 0.025 
0.025 0.025 0.025 0.025 0.025 0.025 0.025 0.025 0.025 
0.025 0.025 0.025 0.025 0.025 0.025 0.025 0.025 0.025 
0.025 0.025 0.025 0.025 0.025 0.025 0.025 0.025 0.025 
0.025 0.025 0.025 0.025 0.025 0.025 0.025 0.025 0.025 
0.025 0.025 0.025 0.025 0.025 0.025 0.025 0.025 0.025 
0.025 0.025 0.025 0.025 0.025 0.025 0.025 0.025 0.025 
0.025 0.025 0.025 0.025 0.025 0.025 0.025 0.025 0.025 
0.025 0.025 0.025 0.025 0.025 0.025 0.025 0.025 0.025 
0.025 0.025 0.025 0.025 0.025 0.025 0.025 0.025 0.025 
0.025 0.025 0.025 0.025 0.025 0.025 0.025 0.025 0.025 
0.025 0.025 0.025 0.025 0.025 0.025 0.025 0.025 0.025 
0.025 0.025 0.025 0.025 0.025 0.025 0.025 0.025 0.025 
0.025 0.025 0.025 0.025 0.025 0.025 0.025 0.025 0.025 
0.025 0.025 0.025 0.025 0.025 0.025 0.025 0.025 0.025 
0.025 0.025 0.025 0.025 0.025 0.025 0.025 0.025 0.025 
0.025 0.025 0.025 0.025 0.025 0.025 0.025 0.025 0.025 
0.025 0.025 0.025 0.025 0.025 0.025 0.025 0.025 0.025 
0.025 0.025 0.025 0.025 0.025 0.025 0.025 0.025 0.025 
0.025 0.025 0.025 0.025 0.025 0.025 0.025 0.025 0.025 
0.025 0.025 0.025 0.025 0.025 0.025 0.025 0.025 0.025 
0.025 0.025 0.025 0.025 0.025 0.025 0.025 0.025 0.025 
0.025 0.025 0.025 0.025 0.025 0.025 0.025 0.025 0.025 
0.025 0.025 0.025 0.025 0.025 0.025 0.025 0.025 0.025 
0.025 0.025 0.025 0.025 0.025 0.025 0.025 0.025 0.025 
0.025 0.025 0.025 0.025 0.025 0.025 0.025 0.025 0.025 
0.025 0.025 0.025 0.025 0.025 0.025 0.025 0.025 0.025 
0.025 0.025 0.025 0.025 0.025 0.025 0.025 0.025 0.025 
0.025 0.025 0.025 0.025 0.025 0.025 0.025 0.025 0.025 