# vtk DataFile Version 3.0
vtk output
ASCII
DATASET POLYDATA
POINTS 1842 float
8.51746 52.1534 12.7691 8.63119 52.1635 12.8255 8.56607 52.2001 12.7563 
8.49311 52.1835 12.6852 8.95494 52.2811 12.8911 8.52604 52.2363 12.6438 
8.62848 52.26 12.7384 5.5727 48.9392 12.0792 5.56021 48.7572 11.9447 
5.51964 48.7741 12.0716 5.928 48.8199 12.8207 5.54493 48.7 11.9437 
5.58708 48.6388 12.3173 5.47932 48.6327 12.0543 9.90462 51.6322 13.8522 
9.90626 51.5199 13.9401 10.1895 51.5439 14.0284 10.227 52.0042 13.673 
10.0478 51.3951 14.0987 10.8843 51.2252 14.3681 10.5906 52.054 13.7676 
11.7272 51.6471 14.2794 10.182 52.2828 13.4547 11.7111 51.4248 14.4137 
11.7489 51.7275 14.2316 10.9049 52.0946 13.809 10.8246 52.2499 13.6945 
11.8982 51.6801 14.2732 12.005 51.5461 14.3487 7.88183 47.7129 8.87985 
7.46838 47.5656 9.07384 7.39366 47.5822 9.10539 7.70197 47.7808 8.95355 
8.02682 47.776 8.8261 7.44836 47.539 9.07392 7.30416 47.5896 9.18118 
7.30845 47.6179 9.1833 7.37102 47.5642 9.11584 7.41343 47.8316 9.18953 
7.16072 48.0903 9.41517 7.73375 47.8692 8.94619 11.096 22.2194 8.70918 
11.3547 22.5071 8.6932 11.1919 21.6298 8.75012 10.7149 22.7128 8.64289 
11.5451 21.6092 8.75612 11.1714 23.6003 8.62565 12.0923 23.0859 8.75038 
12.262 22.0739 8.78208 11.3947 21.2051 8.79156 10.3465 22.9533 8.60765 
11.4297 20.6963 8.83625 12.2568 20.9821 8.81138 11.0803 24.8092 8.57306 
9.94934 24.2552 8.47155 11.9921 24.1101 8.74012 13.1635 22.5275 8.90891 
12.7788 23.6142 8.86548 13.2441 21.4466 8.9172 10.1558 23.2555 8.56781 
12.2457 20.3336 8.87925 12.716 20.6976 8.87321 13.2424 21.4019 8.91813 
11.1674 26.0352 8.56456 9.94173 25.6312 8.38303 11.9972 25.2087 8.74934 
8.40443 25.2106 8.37938 9.41911 23.8487 8.52606 12.6908 24.5659 8.88715 
13.7428 23.2581 9.07035 14.4186 22.2853 9.27049 14.2715 21.6747 9.21172 
13.4055 24.1895 9.02948 14.128 20.8168 9.16641 14.2931 20.7056 9.21298 
12.0833 26.3668 8.7716 10.2734 26.8739 8.37922 11.383 27.246 8.59264 
9.0431 26.6853 8.26941 12.7103 25.5695 8.91999 7.97357 24.5643 8.53659 
7.78277 25.0544 8.49802 7.83798 25.6285 8.3883 7.94244 27.043 8.24586 
8.76163 23.8546 8.53384 13.2902 25.0235 9.04844 14.2772 23.934 9.29048 
14.8281 22.9216 9.47775 15.5368 21.981 9.85506 15.2998 21.539 9.71083 
14.9984 21.1633 9.56592 15.2866 21.1802 9.7056 13.9331 24.7745 9.22418 
12.7964 26.5911 8.95523 12.2427 27.4492 8.80332 9.59276 27.653 8.26002 
10.5937 28.0426 8.3948 11.6656 28.4612 8.62124 8.69689 28.03 8.16434 
13.2925 25.8922 9.07946 7.87304 26.9722 8.25846 7.88669 27.0726 8.24595 
7.86509 27.4844 8.20575 13.739 25.4125 9.20288 14.7272 24.6701 9.65539 
15.209 23.6656 9.86938 15.7984 22.6467 10.2143 16.2726 21.9429 10.5968 
16.0184 21.8743 10.329 15.8785 21.6455 10.1397 15.9317 21.4133 10.1983 
15.7217 21.2282 10.0278 14.3234 25.4619 9.49632 12.9275 27.4722 8.99437 
13.3577 26.7493 9.11774 12.5221 28.2627 8.85558 9.68275 28.5197 8.21152 
9.55348 28.6248 8.19447 10.7928 29.2093 8.36502 9.83775 28.6267 8.229 
12.3349 29.136 8.77044 11.6896 29.3578 8.57879 11.0933 29.3552 8.43147 
8.17309 28.4575 8.12155 8.77526 28.5864 8.12296 13.8231 26.0964 9.26679 
14.8729 25.6082 10.4884 15.2784 24.3916 10.7343 15.7343 23.3743 11.0402 
16.238 22.4819 11.443 16.3241 22.0398 10.949 14.3729 26.3803 9.65542 
13.1298 28.0814 9.06396 13.5028 27.5132 9.20262 13.8353 26.8522 9.31589 
13.0029 28.7333 9.00398 10.6594 29.3539 8.327 10.8462 29.4437 8.35991 
10.2184 28.9561 8.2778 12.9222 29.656 8.98424 12.3435 29.5742 8.76338 
12.0052 29.4011 8.66419 14.435 26.5155 10.9369 14.4926 25.6659 11.2169 
14.528 26.9524 10.4016 14.7688 24.8804 11.2949 15.1368 23.9541 11.4486 
15.5574 23.0427 11.7368 16.4062 22.2471 11.569 16.0533 22.3689 11.8946 
15.8808 22.4667 12.0312 14.1003 27.4304 9.57687 13.6414 28.2288 9.32638 
13.5886 29.1086 9.34916 12.5983 29.9534 8.85251 12.8975 30.3615 8.98695 
13.3211 30.1268 9.28686 14.1341 27.0555 11.0929 14.2017 26.3499 11.2857 
14.1654 27.52 10.8758 14.1995 25.7058 11.5183 14.36 25.1059 11.6037 
14.2298 28.3058 10.2686 14.5947 24.3683 11.7266 14.9485 23.5068 11.9085 
15.3749 22.7388 12.1261 15.7232 22.4892 12.1158 13.9433 29.6401 10.2592 
13.4681 30.1253 9.37994 13.7983 27.0389 11.4344 13.836 27.7319 11.1732 
13.787 26.2271 11.705 13.7878 28.3593 11.0219 13.8409 25.3972 11.94 
13.9805 24.6459 12.111 13.6448 29.1831 10.9761 14.2267 23.885 12.2573 
14.6486 23.11 12.3768 15.6047 22.4122 12.2754 15.2591 22.6261 12.2956 
14.8822 22.8062 12.4351 13.5411 30.1608 9.5462 13.8119 30.4831 10.2758 
13.465 30.2775 10.9389 13.2541 26.9567 11.8733 13.3552 27.7877 11.5664 
13.4881 28.3386 11.3105 13.2011 25.991 12.1888 13.3295 28.9409 11.3025 
13.2552 25.0547 12.4587 13.4179 24.2267 12.6587 13.1966 29.7652 11.257 
13.7304 23.3303 12.8514 13.852 23.1969 12.8486 14.574 22.9513 12.5171 
13.6074 30.6072 10.6043 13.0841 30.8586 11.2639 13.4165 30.846 10.9708 
12.4882 26.8026 12.3602 12.6752 27.824 12.0084 12.9586 28.5802 11.6564 
12.407 25.7358 12.6933 12.7778 29.366 11.6377 12.4719 24.746 12.9738 
13.1384 24.0864 12.8611 12.4777 24.7211 12.98 12.7419 30.2875 11.5673 
13.4801 23.4553 12.933 13.614 23.2782 12.9336 13.7272 23.2209 12.9035 
12.635 31.3629 11.64 13.0555 31.1228 11.3046 13.1346 30.9806 11.217 
11.4571 26.5291 12.8708 11.7556 27.6517 12.5212 12.1175 28.797 12.1372 
11.3223 25.4339 13.175 12.1605 29.8721 11.9863 11.3732 24.9268 13.302 
12.4113 24.7234 13.0013 12.269 30.7509 11.882 12.7115 31.5158 11.5932 
12.6166 31.4864 11.6665 12.4737 31.4233 11.7537 10.0625 26.1264 13.2938 
10.5524 27.2731 13.0229 10.9863 28.4036 12.732 11.246 29.5008 12.5069 
11.1605 24.4584 13.4577 9.95959 24.909 13.5156 12.06 30.6971 12.0057 
11.7221 30.3835 12.2162 12.2389 30.8568 11.9053 8.16315 25.5856 13.366 
9.13975 27.0106 13.3107 9.86868 27.9964 13.1221 10.0591 29.0513 12.9926 
10.5056 30.2129 12.7934 11.5227 30.4335 12.326 10.1209 24.0753 13.6771 
8.48843 24.4031 13.496 8.8607 24.1891 13.5342 7.30105 25.3556 13.0811 
7.77639 25.1179 13.2554 7.14275 26.0754 13.0879 6.97205 26.7405 13.0544 
7.64141 27.2757 13.2559 8.7871 28.3397 13.2698 9.17342 29.7062 13.175 
10.0427 31.0541 12.9845 10.9653 30.3678 12.5787 10.588 30.3679 12.7623 
6.95087 27.5018 13.0664 7.38632 28.914 13.2341 7.651 28.9098 13.2398 
7.59851 29.138 13.2248 8.79014 30.3863 13.248 9.60347 30.92 13.0761 
9.80071 31.5726 13.1035 10.2507 31.1268 12.903 10.1333 31.2336 12.9669 
18.3223 11.8045 15.5314 18.5654 11.77 15.5563 18.218 11.7782 15.7595 
18.5074 11.8814 15.2604 18.6124 11.9031 15.1684 18.2237 11.7447 15.9497 
18.9576 11.7988 15.2983 18.5584 11.6927 15.9697 18.8562 11.698 15.6566 
18.0189 11.8044 15.745 18.5033 11.9296 15.1199 18.6923 12.0276 14.9203 
19.0008 11.9824 14.9183 17.8606 11.7913 15.9305 17.8912 11.8103 16.394 
18.366 11.7397 16.3206 18.2613 11.7513 16.2153 19.2681 11.8399 15.0857 
19.1368 11.6528 15.6348 19.3312 11.6716 15.4318 18.8175 11.6429 16.007 
18.6518 11.6903 16.4318 18.6489 11.6908 16.4307 19.0616 11.6114 15.8979 
17.8303 11.8153 15.7849 18.7757 12.1163 14.7365 19.1074 12.1749 14.6095 
19.3134 12.0473 14.7407 17.6965 11.8131 15.9107 17.4395 11.8687 16.1754 
17.4241 11.8831 16.3439 17.6725 12.0294 16.7571 18.1462 11.7767 16.4299 
17.9447 11.9051 16.622 19.5949 11.8487 14.9452 19.6113 11.6552 15.3041 
19.2912 11.5655 15.8855 19.4889 11.545 15.7356 19.683 11.5385 15.5828 
18.9806 11.607 16.3055 18.6526 11.6901 16.4352 19.3088 11.534 16.1583 
18.7826 12.1312 14.7127 19.3786 12.35 14.363 19.0378 12.3771 14.3677 
19.6833 12.1401 14.5387 17.2628 11.8863 15.9872 17.4415 12.0132 16.6234 
16.8879 11.9648 16.1795 16.807 12.3718 16.9778 20.0734 11.8509 14.8042 
20.003 11.6315 15.1831 20.0286 11.4892 15.5246 19.6723 11.4536 16.0471 
19.966 11.4188 15.8428 19.3695 11.7205 16.8834 18.9223 11.8722 16.984 
18.6539 11.6934 16.4441 19.8915 11.5898 16.7466 19.3798 12.5981 14.1398 
19.7633 12.5543 14.1533 19.1255 12.4123 14.3143 19.8282 12.4927 14.2064 
20.2215 12.1762 14.4209 17.041 11.9401 15.7891 17.296 12.2685 17.0621 
16.5168 12.0114 15.6799 16.4009 12.2802 16.5148 16.8792 11.9606 15.5808 
16.316 12.4328 16.7778 16.8358 12.5767 17.1075 17.1268 12.6362 17.2036 
20.6877 11.8336 14.7601 20.4918 11.5911 15.1639 20.3759 11.4807 15.4584 
20.4197 11.4059 15.7444 20.432 11.4996 16.5375 19.5981 12.3026 17.2763 
19.3292 12.1495 17.1799 19.7172 12.2761 17.2542 19.0974 12.0964 17.1409 
18.6476 11.6959 16.4467 18.513 11.9887 17.0402 18.9198 12.0315 17.093 
20.1353 12.1796 17.1451 19.9722 12.4957 14.1806 20.5169 12.5194 14.157 
20.8406 12.0929 14.481 17.0133 11.975 15.3371 16.8597 12.0335 15.1498 
16.2715 12.293 16.3272 16.4761 12.0913 15.0613 16.1848 12.0858 15.6436 
21.0079 11.862 14.8006 21.0439 12.0112 14.6278 21.018 11.6253 15.1007 
20.6294 11.5172 15.3674 20.9038 11.601 15.1424 20.6669 11.4617 15.5183 
20.6434 11.4412 15.5982 20.827 11.4489 16.1094 20.9258 12.1224 16.8319 
20.4975 12.2367 17.0647 20.8155 11.4756 16.3353 19.6833 12.333 17.2748 
19.791 12.4432 17.2884 19.9027 12.4548 17.2702 18.3721 11.8393 16.6599 
18.6083 12.0987 17.121 18.5069 12.2503 17.2118 18.3558 12.0261 17.0558 
20.1294 12.4788 17.216 20.4539 12.2804 17.0861 20.564 12.5156 14.1596 
20.906 12.263 14.3619 21.2579 12.2327 14.4422 17.3161 12.0202 15.0492 
17.0218 12.1693 14.6435 17.3741 12.0423 14.9569 16.1753 12.1388 15.0006 
16.4683 12.1766 14.7578 16.2402 12.1076 15.3529 20.788 12.5359 16.9924 
20.7711 12.4368 16.9788 21.034 12.4655 16.854 21.288 12.1792 16.623 
20.9729 11.5665 16.3379 20.5106 12.2565 17.0629 20.4931 12.2529 17.0687 
16.6546 12.2389 14.487 17.2365 12.5954 13.8276 17.8011 12.2798 14.4221 
17.509 12.0634 14.914 20.8242 12.8495 16.9852 20.8465 12.8581 16.9733 
21.2179 12.6556 16.7604 21.4096 11.8591 16.2299 21.5529 12.3288 16.4719 
21.0391 11.5994 16.3184 16.6765 12.3653 14.2425 16.6683 12.5819 13.8133 
17.0367 12.772 13.5664 17.8446 13.3096 13.1932 18.2347 12.8063 13.7797 
18.2108 12.3388 14.3762 18.0569 12.0955 14.7978 18.3846 12.578 14.0825 
21.0478 12.9567 16.8491 21.4071 12.8581 16.6323 21.5461 12.469 16.503 
17.7351 13.2852 13.1884 17.8121 13.3455 13.1533 17.8841 13.3654 13.1685 
[...]
CELL_DATA 3680
FIELD FieldData 6
Jacobian 1 3680 float
0.890717 0.855408 0.94388 0.973845 1.08478 1.17658 1.87762 1.6249 0.672495 
1.21894 0.934053 0.934053 1.23226 0.985684 0.809603 0.809603 0.668881 0.925698 
0.883887 0.872888 0.908181 1.07642 1.07642 1.57313 1.57313 1.4223 1.4223 
1.25826 1.31384 1.31384 1.28631 1.28631 1.3385 0.894363 1.03919 1.1095 
0.999188 0.969855 0.973201 0.999828 0.989508 1.1304 0.733644 1.4728 0.878331 
1.24052 0.816139 1.40769 0.841437 1.17572 1.17572 1.22807 1.34992 1.29654 
1.29654 1.87737 1.64393 1.64393 2.36936 1.94286 2.01578 2.12473 1.60217 
2.13855 2.20265 2.98335 2.69422 2.69422 1.80309 1.74511 1.56454 1.43121 
1.63139 1.79702 1.48283 1.4226 1.26647 1.26647 1.32699 1.32699 1.77896 
1.44232 1.44232 1.52908 1.76557 1.76557 1.40448 2.29171 1.72982 1.79896 
1.60731 2.08763 1.39314 1.54181 1.24172 1.36763 1.36763 1.03149 1.03149 
0.834344 0.879142 0.896384 0.896384 0.922408 0.955961 0.892679 1.43083 1.58186 
1.24453 1.34343 1.34343 1.6831 1.6831 1.26009 1.76489 1.37862 1.8657 
1.29604 0.79155 1.1949 0.787612 1.24197 0.874175 1.27671 0.835228 1.08421 
0.837833 0.832706 0.832706 0.870785 0.847553 1.48539 1.90367 1.71481 2.04289 
2.04289 1.30892 2.4207 1.43754 2.1174 2.1174 1.12882 0.835614 0.995004 
0.729642 0.729642 1.30452 1.30452 0.802388 1.02019 1.02019 0.785928 1.15901 
0.807617 1.38499 0.81699 1.20116 0.870694 1.33801 0.799624 0.826203 1.23495 
0.768772 0.664402 0.782841 0.782841 0.884644 1.05136 0.892983 1.04623 0.955611 
1.01778 0.870141 1.04934 0.968686 0.931832 0.923068 0.999444 1.08788 0.851077 
1.00142 0.915312 0.880106 1.04749 0.975274 1.1135 0.894874 1.09791 0.910882 
1.08141 1.63187 0.770634 1.11568 0.627839 1.26711 0.754879 1.1069 0.753001 
1.049 1.43337 1.51261 1.37145 0.733506 1.10951 0.688935 1.24328 0.772247 
1.28641 0.751873 1.0884 1.10689 1.1629 0.840394 1.20603 0.702631 1.1453 
0.77534 1.18254 0.752593 1.18344 1.18494 1.14835 1.21298 1.16636 1.38719 
1.33229 0.918284 1.76297 1.38859 1.38859 1.52052 1.81689 1.86625 2.07145 
2.37833 1.3256 1.43141 1.23998 1.38352 1.38352 1.17309 1.22899 1.26635 
1.33066 2.25698 2.25698 1.92637 2.16591 1.07376 0.926248 1.11827 0.815743 
0.957075 0.983675 1.06701 0.902523 2.01732 1.62225 2.39711 2.39711 1.93001 
1.93001 1.34794 0.718585 0.982588 0.539612 1.04032 0.627495 0.961621 0.609745 
1.38215 0.728689 1.45749 0.663387 0.897793 0.605344 1.36612 0.670818 1.30825 
0.944145 0.643935 0.973995 0.523105 1.43394 1.43394 0.613536 0.613536 0.911637 
0.911637 0.6611 0.6611 1.41592 0.642505 1.14038 1.14038 0.732883 0.971298 
0.897615 2.06844 1.6599 1.74412 1.8674 1.8674 2.0865 2.43998 2.2129 
1.63287 1.64386 2.1114 1.8383 1.8383 1.65569 1.65569 1.50367 1.50367 
1.97732 1.93819 1.93819 1.78343 2.3367 1.67523 1.67523 1.88236 1.88236 
1.63959 1.3188 1.3188 1.42492 1.85242 1.85242 1.30241 1.60182 1.60182 
1.53332 1.80015 1.80015 1.71449 1.71449 0.997574 2.10344 2.10344 1.46377 
1.82102 1.0367 1.20968 1.15533 1.21067 1.19911 1.04139 0.813263 1.24489 
1.24489 1.2492 1.2492 1.22105 1.43476 1.62141 0.891055 1.43388 1.12466 
1.629 1.61368 1.61368 1.14402 1.24351 0.915004 1.20398 1.18275 0.936598 
1.50552 1.28212 1.28212 1.2058 1.2058 1.05402 1.05402 0.879564 0.879564 
1.22425 1.22425 1.00299 1.11972 1.39359 1.39359 1.9773 1.84231 1.9855 
1.9276 1.74312 1.91782 1.123 0.924472 1.36121 1.36121 1.68831 1.34307 
1.00376 0.908072 1.07531 0.870785 0.9376 0.938683 1.01207 0.861636 1.59976 
1.78817 1.82043 1.55405 1.75628 1.848 1.69202 1.56783 4.14031 2.33465 
2.33465 2.84531 1.40763 1.81303 1.81303 1.88699 2.34393 2.19687 2.53534 
1.75296 2.25175 2.25175 1.07777 1.43062 1.41252 1.30377 1.47256 1.47256 
1.46584 2.65415 2.26101 2.26101 2.02675 1.79618 1.89804 1.89804 2.89621 
1.16251 1.16251 1.56793 2.29418 2.29418 2.77552 2.77552 1.91904 2.2463 
2.2463 2.09015 1.62056 2.03539 1.23727 1.80614 1.80328 2.09408 1.46526 
1.80062 1.80062 2.50166 2.10543 2.10543 2.06956 2.18359 2.18923 2.03229 
1.96012 1.91466 1.87896 1.61709 1.65309 1.5278 1.51263 1.51263 1.11879 
1.01305 0.900358 1.05182 0.987378 1.01335 1.01861 1.02444 1.35386 1.20346 
1.34679 1.32257 1.4359 1.17823 1.22193 1.23067 1.28123 0.98081 0.98081 
0.983531 0.916602 0.916602 1.08883 1.03291 1.03291 0.98613 0.957839 0.957839 
0.963315 0.942384 0.890837 0.962634 0.890651 1.00448 0.885627 0.989513 0.976544 
1.09673 0.878966 1.03091 0.915832 1.01744 0.919126 1.03729 1.59195 1.59759 
1.76239 1.40309 1.71025 1.65603 0.956415 1.01501 1.09366 1.08392 1.08795 
1.08795 1.20195 1.06355 1.06355 1.13118 1.32745 1.32745 1.55233 1.4269 
1.4269 1.56532 1.56532 1.40116 1.5922 0.833358 0.848421 0.848421 0.856548 
1.3192 1.70431 1.24825 1.54597 1.3236 1.3236 1.77219 1.77219 1.23594 
1.72544 0.904016 1.0221 1.5448 1.56826 1.63347 1.4734 0.947572 1.13741 
1.05224 1.19029 1.10421 1.34084 1.34084 1.03056 1.21747 1.9784 1.5352 
1.5352 1.74279 1.29633 1.59161 1.59161 1.23213 1.1501 1.4634 1.06846 
1.32125 1.15874 1.48901 1.61555 1.60108 1.57031 1.63917 1.64332 1.11621 
1.11621 1.27397 1.15465 0.971518 1.03169 1.09928 1.1914 1.06131 1.1035 
1.03841 1.11035 1.27618 1.5929 1.5929 1.18668 1.18668 1.44026 1.27687 
1.24435 1.379 1.0459 0.888664 0.888664 0.99135 0.99135 1.15533 0.728538 
0.728538 1.08958 0.779409 1.10036 1.35885 1.12926 1.09764 1.09764 0.970261 
1.11535 1.02605 1.17988 1.17988 1.31783 1.33372 1.51859 1.29451 1.33081 
0.924142 1.32207 1.05337 1.16359 0.986821 1.15934 1.01424 1.13251 0.926367 
1.16955 0.968851 1.59181 0.858334 1.42158 1.36235 1.03455 1.5729 1.56062 
1.25905 1.427 1.12574 1.69325 0.890717 0.890717 1.12164 0.855408 0.855408 
1.36449 0.94388 0.94388 1.58389 1.23218 0.973845 0.973845 1.08478 1.08478 
1.15061 1.0122 1.24982 1.1609 0.868686 0.787153 1.17729 1.08001 1.02594 
1.01493 1.09781 1.06016 0.71593 0.91221 0.760466 0.862497 0.768655 1.01707 
0.676594 0.911677 0.821198 0.789133 0.740484 0.859213 0.793299 0.735272 0.788523 
0.815349 1.89928 1.17658 1.17658 1.27064 2.1927 1.25655 1.87762 1.87762 
1.18603 1.6249 1.6249 0.874555 1.16272 0.672495 0.672495 1.21894 1.21894 
0.62334 1.50773 0.740429 1.25564 0.934053 2.5593 1.23226 1.23226 1.67435 
0.985684 0.985684 1.96646 0.809603 2.01411 0.685139 1.17127 0.668881 0.668881 
0.925698 0.925698 0.675385 0.888085 0.636709 1.03975 1.08869 0.768805 1.19794 
0.622017 0.943931 0.797366 1.16303 0.764847 1.23655 1.99758 1.19018 2.02866 
1.47293 2.1194 1.26372 2.37502 1.16218 0.895813 1.13029 0.86625 1.34954 
0.741082 1.09976 0.787788 1.06281 0.70234 1.41294 0.803452 1.51884 0.873332 
1.52411 0.834765 0.850989 1.49918 0.995567 1.43256 0.960202 1.31973 0.860906 
1.51884 1.31574 0.769095 1.58077 0.710297 1.18112 0.896481 1.46917 0.747861 
1.192 0.744522 1.67257 0.719723 1.38348 0.680073 1.43405 0.739481 1.29303 
1.0218 1.71398 0.755522 1.48531 1.13932 1.42711 1.00635 1.15007 0.918912 
1.43178 1.01207 1.26686 1.0592 1.20587 0.977183 1.52361 0.95454 1.21923 
0.883887 0.883887 1.75303 0.872888 0.872888 1.52939 0.908181 0.908181 2.03349 
1.07642 1.70949 1.57313 1.78708 1.4223 2.06753 1.66688 1.26043 1.61879 
1.02753 1.35818 1.12877 1.58764 1.15937 1.40022 1.09772 1.61388 1.32595 
1.32114 1.16384 1.58224 1.27797 1.20479 1.57024 1.00659 0.99682 1.09425 
1.35643 0.984354 1.36974 1.64974 1.06969 1.59814 1.20549 1.71342 1.041 
1.65022 1.05693 1.24094 1.01921 1.56381 0.905913 1.17854 0.900463 1.28583 
0.908354 1.18527 0.851221 1.08675 0.939507 1.15048 0.929267 1.17859 0.892656 
1.25966 1.05344 1.12136 0.919402 1.49922 0.953063 1.26315 0.99477 1.18522 
1.43046 1.22948 2.17163 1.5325 1.82884 1.46912 1.71834 1.46211 1.51656 
1.54289 1.48219 1.48301 1.80027 1.47652 1.59771 0.784999 1.15548 1.01462 
1.03953 0.8943 1.06958 0.914262 1.06686 1.25489 1.66836 1.13633 1.46336 
1.02899 1.56107 1.11522 1.47478 0.739507 1.18556 0.78461 1.12561 0.883904 
1.03147 0.762217 1.20632 1.04202 0.883634 1.16889 0.890493 0.901621 0.788949 
1.05378 0.781968 0.839841 1.00072 0.820687 0.943186 0.713848 1.12597 0.824799 
0.977679 1.18972 0.89088 1.09624 1.14878 1.25502 1.02301 1.16364 1.03037 
0.903034 1.02566 1.01015 1.09999 0.868713 1.2236 0.900437 1.03407 1.90589 
1.87636 1.83265 1.76175 1.90308 1.97017 1.88612 2.11632 0.800262 0.916664 
0.848675 1.17865 0.948679 1.20202 0.865305 1.16776 1.00379 1.50288 0.875075 
1.34694 1.01403 1.13572 0.964662 1.40214 1.06695 1.55321 1.02324 1.15954 
1.07432 1.24497 1.08562 1.22198 1.0737 1.44468 1.25653 1.35769 1.42451 
1.57084 1.16242 1.45608 1.46328 1.83765 1.46528 1.77392 1.60582 1.8508 
1.46183 1.61662 0.837015 0.934056 1.00224 1.17878 0.803642 1.15019 0.880522 
1.10791 1.31384 1.83244 1.28631 1.601 1.4471 1.66406 1.3385 1.3385 
1.71187 1.25013 1.79789 1.04309 1.69382 1.13325 1.74171 1.08896 1.76947 
1.34092 2.05098 1.48088 1.84448 1.37731 1.94034 1.44172 1.81875 0.796883 
1.09186 1.14419 0.931794 1.04575 0.897047 0.972772 0.954134 1.35026 1.27539 
1.35557 1.30436 1.45084 1.77457 1.18277 1.51484 1.11627 1.61891 1.17964 
2.09487 1.49126 1.3874 1.04614 1.67877 1.36996 1.67893 1.15826 1.52611 
1.0565 1.54072 1.14853 1.45305 1.15339 0.897106 1.03188 0.933498 0.886896 
0.730849 1.06798 0.915867 1.25335 0.961109 1.16253 0.878527 1.18583 0.880866 
1.23098 0.859998 1.35623 1.06758 1.43925 1.16075 1.28778 1.02104 1.35183 
1.11337 1.00944 0.777031 1.19064 0.819705 1.28657 0.975805 1.21755 0.906247 
1.19975 0.78902 0.99303 0.771425 1.26985 0.821363 1.20707 0.839939 1.25727 
1.00887 1.21127 1.026 1.19565 0.937237 1.19755 0.980568 0.89504 0.585905 
1.43478 0.758311 1.29372 0.787347 1.27465 0.697147 1.59125 1.42799 1.46781 
1.59526 1.43054 1.43591 1.52101 1.54452 1.02634 0.672576 1.06985 0.798372 
1.27828 0.626699 1.16162 0.644835 1.32747 1.66977 1.39179 1.63521 1.19336 
1.41618 1.37558 1.63899 1.25391 1.68314 1.30966 1.5971 1.11248 1.41535 
1.21664 1.641 1.11521 1.55572 1.13884 1.28149 1.13603 1.47237 1.12732 
1.55019 0.865864 0.701348 1.01145 0.951929 0.912173 0.874769 0.970887 0.766043 
1.46513 1.36989 1.01692 2.1567 1.63929 1.64353 1.67047 1.66416 1.25536 
0.907589 0.872583 0.761758 1.05102 0.977599 1.11813 0.929644 1.07348 1.10579 
1.14174 1.09702 1.53052 0.876804 1.19536 1.05859 1.10947 1.10409 1.06888 
1.1515 1.35482 1.1412 1.17797 1.10234 1.04531 1.12882 1.10736 1.13435 
1.13035 1.17333 1.04318 1.13872 1.21591 1.16546 1.38472 1.19383 1.54933 
1.00166 1.40033 1.1071 1.43902 1.07398 1.41504 1.0259 1.28912 1.0497 
1.33343 1.08839 1.43131 1.33905 1.78992 0.997564 1.51836 1.254 1.72099 
1.15153 1.0571 1.0224 1.37741 1.11646 1.13002 1.08932 1.19912 1.13146 
1.29591 1.24204 0.99462 1.33884 1.04582 1.30198 1.03659 1.31077 0.948296 
1.3566 1.19445 1.23247 1.13806 1.28335 1.10553 1.29168 1.81169 0.796929 
1.46128 1.06571 1.30915 1.06375 1.65963 0.854056 1.92703 0.81214 1.75595 
1.24031 1.69227 1.21693 1.81196 1.05172 1.30054 1.28425 1.39038 1.30226 
0.989597 1.20012 1.3676 1.31287 0.948472 0.764477 1.11909 1.04231 0.947185 
0.974684 0.921493 0.839009 1.06668 0.831019 1.20124 1.08466 1.25748 1.19166 
1.10152 0.995293 1.18809 1.06822 1.2513 0.897199 1.28948 1.29385 1.19222 
1.05909 1.15793 0.782544 1.09036 0.952857 1.08809 0.756834 1.14908 0.813679 
1.04558 0.906095 1.04046 1.05081 1.00632 1.15018 1.00729 1.09797 2.07752 
1.91022 2.58036 1.36049 2.49633 1.56801 2.24011 1.42693 1.39986 1.26818 
1.56689 1.0955 1.2308 1.26102 1.31082 1.37591 1.04878 0.838588 1.14999 
0.782081 1.08952 0.792972 1.06695 0.752209 1.46176 1.29978 1.55167 1.74974 
1.54013 1.65766 1.37798 1.52677 1.71821 1.65558 1.40287 1.32015 2.48476 
1.44874 1.91472 1.50152 1.75199 1.4987 2.36392 1.29854 1.80331 1.0997 
2.14894 1.2948 1.44687 1.26948 1.58633 1.61004 1.65858 1.84236 1.50056 
1.66097 1.85752 1.2329 1.81232 1.75986 1.75136 1.64516 1.67912 1.45119 
1.37253 1.08087 1.39041 1.32802 1.29444 0.983615 1.36723 1.09774 1.14626 
0.782122 1.18451 0.702655 1.37803 0.805569 1.18934 0.723686 1.9616 1.80879 
2.35416 1.73325 2.32555 1.72886 2.14875 2.0558 0.897241 1.33929 1.02001 
1.10232 1.03169 0.937498 0.997216 1.07873 0.993093 0.691757 0.917769 0.728346 
1.0374 0.74259 0.94554 0.73811 1.20966 0.823289 1.5723 0.671027 1.0365 
0.580923 1.20135 0.680338 1.09582 1.0113 1.06489 0.991008 1.03839 1.18943 
0.952326 0.999231 1.02797 0.890893 1.24043 0.814896 0.907067 0.710262 0.97455 
0.709788 1.3657 0.891124 1.26714 0.908731 1.97482 0.886236 1.61253 0.898134 
1.24499 0.752794 0.92842 0.588303 1.47374 0.793804 1.2148 0.775622 1.53698 
0.968612 1.72151 0.872842 2.01729 1.38956 1.82252 1.05307 0.798274 0.526485 
0.800357 0.555968 1.34401 0.667344 0.948904 0.541482 1.24908 0.771441 0.963831 
0.725091 0.90385 0.623757 0.935095 0.668954 1.17572 1.70005 1.90928 1.34992 
1.34992 1.96437 1.29654 1.94222 0.997759 0.628201 1.27369 0.707143 1.5629 
0.669353 1.22472 0.699455 1.64393 1.94286 1.94286 1.56158 1.60217 1.60217 
2.00776 2.11086 1.72636 1.56809 1.72704 1.70701 1.89127 2.00812 0.783422 
0.714586 0.8751 0.680939 1.24891 1.02487 0.894719 0.724569 0.88126 0.538794 
0.849291 0.546932 1.7111 0.84703 1.0131 0.608228 1.71308 1.59702 1.65641 
1.9124 1.15492 2.27185 1.54661 1.87275 2.13855 2.13855 1.79085 1.33823 
2.98335 2.98335 2.5875 2.69422 1.97549 1.60652 2.23302 1.87611 2.67852 
1.68407 2.23048 1.89932 2.45299 1.2332 0.765203 1.22214 0.781813 1.64356 
0.782085 1.32485 0.687824 1.69345 1.93666 1.65284 1.52023 1.69893 1.90354 
1.57765 1.95604 1.80359 2.00684 1.80309 1.80309 1.87514 1.74511 1.74511 
1.95002 1.56454 1.56454 1.94365 2.1019 2.7401 2.08438 2.22967 1.89333 
2.15022 1.87513 2.54526 1.43121 1.43121 1.69717 1.63139 1.63139 1.6547 
1.76488 1.10006 1.79702 1.79702 1.47865 2.05354 1.19362 2.25588 2.33966 
2.7079 2.15673 2.44747 1.82938 1.91402 1.92268 2.03811 1.14605 1.3566 
1.22887 1.66835 1.25398 2.72729 1.87118 3.23126 1.54155 3.303 1.4417 
3.38742 1.85089 2.78606 2.2083 2.63947 2.40803 2.36868 2.34659 2.56056 
2.24783 1.48283 1.48283 2.04448 1.84721 1.26647 2.41213 1.32699 2.13773 
2.68911 2.3695 2.19324 2.63549 2.00601 2.95498 2.41385 2.69229 1.77896 
1.77896 1.78552 1.53014 1.97617 1.44232 2.29498 1.52908 1.52908 2.03315 
1.34074 1.35669 1.6366 0.883378 1.10907 0.870763 1.37906 1.01758 1.739 
0.763905 1.14589 0.897694 1.10302 1.08669 1.22333 0.857223 1.28311 1.00361 
1.14815 1.16315 1.13576 0.844312 1.27577 1.00617 1.76557 1.81692 2.29171 
2.29171 1.79896 1.79896 2.08763 2.08763 1.5365 1.97892 1.30573 1.40323 
1.32641 1.06123 1.16071 1.65001 1.00645 0.883174 1.06454 0.724842 0.993565 
0.786007 0.922507 0.821192 0.962718 0.833669 0.834359 0.901743 1.10315 0.946771 
0.927349 0.86671 1.2545 0.857364 0.830619 0.620626 0.787528 0.653812 0.770511 
0.608205 0.943913 0.81463 1.18255 0.778083 1.13154 0.74523 1.02481 0.772325 
1.30457 1.3052 1.21709 1.14536 1.52771 1.44473 1.38641 1.40594 1.18689 
1.21042 1.15759 1.45585 1.14957 1.29641 1.14014 1.21949 1.34579 1.39314 
1.39314 1.34223 1.54181 1.54181 1.2516 1.33232 1.36763 1.34749 1.40935 
1.4256 1.5382 1.18757 1.14952 1.35923 1.42054 1.28535 1.2579 1.47847 
1.28786 1.52348 1.32231 1.3431 1.23871 1.03149 0.954811 0.896384 0.955961 
0.955961 1.50636 1.31016 1.43611 1.3218 1.5445 1.47668 1.49222 1.36357 
1.41535 1.48475 1.58488 1.50911 1.43083 1.43083 1.58186 1.58186 1.46684 
1.40085 1.21322 1.19614 1.32687 1.27239 1.1563 1.14123 1.17438 1.16501 
1.3705 1.31044 1.27267 1.26062 1.4409 1.42542 1.37995 1.36042 1.23934 
0.862546 1.17728 0.836424 1.0309 0.822619 1.18144 0.873147 1.52343 1.29909 
1.54727 1.41703 1.59591 1.34246 1.59348 1.3897 1.49151 1.34891 1.4172 
1.24453 1.24453 1.54305 1.49474 1.50304 1.31046 1.41475 1.68153 1.34343 
1.6831 1.26009 1.26009 1.76489 1.76489 1.37862 1.37862 1.8657 1.8657 
1.08421 1.08421 1.15177 0.832706 1.00834 1.095 1.90367 1.90367 2.04289 
2.4207 2.4207 2.1174 0.995004 0.995004 0.729642 1.30452 1.02019 1.27942 
0.826203 0.826203 1.23495 1.23495 0.831589 0.664402 0.664402 1.28105 0.782841 
1.4064 1.28135 1.18635 1.17253 1.05225 1.05098 1.28191 1.25005 1.71658 
1.71468 1.56917 1.62441 1.45624 1.64112 1.60936 1.85673 1.38094 1.24032 
1.05301 1.0025 1.21651 1.049 1.049 1.20705 1.07413 1.5277 1.40516 
1.51109 1.5501 1.43337 1.43337 1.51261 1.51261 1.55301 1.60808 1.372 
1.78436 1.54946 1.76964 1.52336 1.72995 1.488 1.71621 1.10903 1.09399 
1.11061 1.23581 1.13494 1.0884 1.0884 1.13587 1.09158 1.3185 1.77157 
1.36874 1.75828 1.39066 1.74603 1.35283 1.71192 1.02815 1.25252 1.01526 
1.21872 1.05998 1.44771 1.02183 1.25309 1.78834 1.0382 1.60912 1.28794 
2.08302 0.845106 1.87251 0.942442 1.81697 1.72751 1.64069 1.63222 1.96298 
2.01607 1.77716 1.78058 0.980373 1.24092 1.07009 1.45939 1.06934 1.25906 
1.0658 1.38483 1.19626 1.30442 1.17104 1.12984 1.10397 1.17248 1.07155 
1.16645 1.06928 1.21327 1.00802 1.30706 1.17483 1.10689 1.10689 1.04665 
1.23771 1.68176 1.64164 1.18086 1.00806 1.77908 1.29125 1.68686 1.3592 
1.2263 1.18537 1.84404 1.75961 1.35689 1.28181 1.51549 1.44363 1.34893 
1.66068 2.17447 1.48398 1.38661 1.43266 1.49379 1.63352 1.29546 1.38115 
1.80704 1.44865 1.28937 1.12342 1.53202 1.15183 1.49929 1.83687 1.3691 
1.73376 1.43222 1.78824 1.34931 1.76494 1.18494 1.18494 1.51944 1.67315 
1.51857 1.38719 1.38719 0.775082 0.918284 0.918284 1.76297 1.76297 0.855602 
1.38859 0.864983 1.78762 0.930833 1.32527 1.35944 1.32646 1.26305 1.38757 
1.1911 2.06775 1.67986 1.86606 1.78637 1.98949 1.47411 1.9688 1.64472 
1.39935 1.63674 1.59819 1.11417 1.45238 1.68801 1.65555 1.46485 1.81029 
1.15891 1.57967 1.66759 1.47291 1.31894 1.35003 1.3377 3.16891 1.09772 
3.16239 1.85185 3.11718 1.47361 3.31571 1.27595 2.66155 2.16077 2.34638 
1.17951 1.61377 1.44526 2.25575 1.68841 1.45872 1.3857 2.24143 1.82478 
2.23444 2.14687 2.21093 1.84076 2.93313 1.78013 2.67231 1.72414 2.88529 
1.59406 2.93034 1.80793 1.9685 1.89698 1.97802 2.2047 1.52052 1.52052 
2.04449 1.61643 2.02414 2.00312 2.17148 1.88964 1.95129 1.65373 1.32823 
1.80821 1.51121 1.81689 1.81689 1.9442 1.86845 1.81283 1.85147 1.37871 
1.95073 1.63534 1.94195 1.92964 1.86625 1.86625 2.02551 2.13946 2.34079 
2.00022 2.2322 1.68777 1.42324 1.92793 1.66872 1.62884 1.50342 1.69699 
1.47058 2.07145 2.07145 2.13593 2.37833 2.37833 1.92742 2.57985 1.79044 
2.46794 2.06626 1.38352 2.36535 1.68343 2.56331 1.62947 2.47395 1.8666 
2.53628 1.71338 1.49339 1.41443 1.30383 1.07914 1.20377 0.915651 1.3812 
1.04329 2.50124 1.74916 1.81629 1.97917 2.26345 1.86109 2.36513 1.62662 
2.25698 1.71848 1.92637 1.92637 1.99379 2.39074 1.83744 2.16591 2.16591 
1.89496 1.01077 1.33823 1.04476 1.46239 1.33689 1.2599 1.14648 1.3315 
2.01732 2.01732 1.79037 2.97422 2.39711 1.86762 1.93001 2.14492 1.45098 
2.05253 1.42784 2.01541 1.30825 1.30825 2.29292 1.34534 2.19033 0.944145 
0.944145 0.643935 0.643935 1.43394 0.613536 0.911637 0.6611 1.41592 1.41592 
0.642505 0.642505 0.707595 0.720978 1.00112 0.823556 1.20893 0.69971 1.96678 
1.65091 1.7255 1.56551 1.69767 1.7949 1.72278 1.49675 0.704519 0.703102 
0.874555 0.624407 0.931335 0.816876 0.798583 0.646978 2.1629 1.34207 2.16635 
1.73146 2.30054 1.60693 2.16526 1.65319 0.945216 0.595171 0.82481 0.667532 
0.927139 0.781659 0.898068 0.637033 0.890575 0.911107 1.05696 0.818955 1.18854 
0.912175 1.00013 0.872613 1.85408 1.62273 1.98364 1.41201 2.21806 1.67895 
2.12069 1.44728 0.909908 0.691175 0.914987 0.825837 0.945725 0.842979 0.955802 
0.769526 0.810126 0.831974 1.14038 0.732883 0.732883 0.971298 0.971298 0.807466 
0.897615 0.897615 0.807398 0.932956 0.913218 0.747708 0.723466 0.77497 0.763467 
0.764702 0.767672 0.793161 0.682371 0.98165 0.954664 0.944799 0.820748 0.946692 
0.900059 0.853801 0.878729 0.700955 0.878407 0.889478 0.989592 0.84623 0.928503 
1.43313 1.56382 1.35658 1.32554 1.51603 1.93602 1.56026 1.47687 0.901741 
0.916933 0.787571 0.799601 0.809794 0.790366 0.83296 0.806047 0.694774 0.84467 
0.789703 0.790013 0.867996 0.905069 0.721335 0.821026 1.54144 1.76999 1.17997 
1.4818 1.40863 1.50745 1.25823 1.74668 1.13566 0.907965 1.2015 1.29421 
1.14791 1.30627 1.09432 0.996901 1.84151 1.6599 1.6599 2.01517 1.74412 
1.74412 2.06667 1.8674 1.92703 1.3086 1.26739 1.59895 1.551 1.26733 
1.30342 1.43327 1.64969 1.71355 1.85695 1.28766 1.53359 1.51322 1.90244 
1.50051 1.47174 1.78591 1.77502 1.66789 1.66685 1.91193 1.99665 1.93326 