# vtk DataFile Version 4.0
vtk output
ASCII
DATASET POLYDATA
POINTS 314 float
111.815 101.932 62.5238 112.904 101.493 63.9721 115.159 101.453 63.7747 
117.642 101.977 62.2657 119.091 102.948 60.4432 120.747 104.165 59.1389 
121.992 105.687 58.0182 123.794 108.018 56.7083 125.253 111.466 55.2289 
126.483 115.061 54.0105 126.652 118.996 52.8369 126.943 122.903 52.0061 
126.078 126.437 51.2709 125.351 129.892 50.4136 124.078 131.891 49.4962 
122.013 134.2 47.9828 118.764 135.776 47.0369 115.026 136.315 48.3033 
113.412 134.955 50.3588 113.869 131.715 51.6765 114.611 128.731 52.329 
115.651 126.875 52.3098 117.031 125.381 52.1077 119.166 122.869 52.0703 
120.098 119.04 52.7421 119.943 115.173 53.7202 118.833 111.775 54.8808 
118.077 109.074 55.9513 117.403 106.569 57.1976 115.95 104.831 58.363 
114.711 103.465 59.555 112.699 102.612 60.6269 113.197 100.364 62.3246 
113.339 103.098 63.201 116.739 127.126 49.9688 117.805 128.099 52.6434 
115.427 100.571 61.1463 115.397 103.477 62.5184 116.598 101.496 59.5884 
116.558 104.099 61.5064 115.525 133.149 47.7694 116.868 134.469 50.2177 
122.602 128.732 48.4812 122.22 129.794 51.5995 119.431 104.277 56.8671 
119.343 106.276 59.3035 120.304 106.623 55.2693 120.189 108.204 58.067 
119.58 125.304 49.5713 119.955 126.381 52.8161 121.187 109.141 54.0441 
121.052 110.455 56.9687 123.169 123.949 49.7761 123.092 124.687 53.1048 
121.727 111.903 52.9405 121.68 112.991 56.0162 116.557 129.988 48.5914 
117.712 131.356 51.6695 123.766 126.677 49.2711 123.486 127.486 52.3568 
121.669 121.034 50.5428 121.739 121.74 53.6907 123.618 113.879 52.3 
123.466 114.913 55.4847 119.293 128.616 48.1946 119.82 129.889 51.8294 
121.395 130.968 47.4372 121.328 132.288 50.5757 119.339 132.688 46.6017 
119.678 134.239 49.5521 123.498 118.725 50.8711 123.441 119.54 54.346 
121.624 116.567 51.6137 121.672 117.357 54.6896 125.475 120.915 50.6739 
125.303 121.597 53.7876 125.458 116.531 51.7408 125.256 117.356 54.7763 
117.6 102.657 58.1197 117.52 105.113 60.5085 117.187 134.53 46.8232 
115.354 134.834 47.7759 116.886 136.177 47.467 116.812 126.029 50.9278 
117.989 126.132 49.6983 117.897 125.039 50.8671 122.282 107.056 55.8535 
120.763 107.829 54.6431 122.847 108.447 55.1522 113.989 135.963 49.3132 
114.201 133.921 49.1026 120.878 133.586 46.9367 122.133 132.619 47.5813 
120.379 131.773 47.0052 120.717 113.374 53.0804 121.439 114.381 52.5267 
122.731 112.898 52.6543 116.382 126.157 52.1662 115.972 126.691 51.2683 
115.222 129.287 50.405 114.204 130.143 52.0713 114.874 130.668 50.0039 
115.096 127.533 52.4253 115.586 127.97 50.7794 116.479 101.629 63.1545 
115.821 100.931 63.3982 117.046 101.127 62.5276 111.953 102.28 61.5717 
112.741 101.358 60.9448 112.079 101.211 62.3354 116.47 128.597 49.2987 
123.037 131.492 48.3048 123.191 133.066 48.7824 121.122 124.343 49.699 
121.817 125.862 49.0441 123.428 125.276 49.4972 120.566 121.901 51.0154 
120.857 120.194 51.4508 119.808 121.069 52.345 123.045 127.693 48.8636 
123.993 129.479 49.253 124.61 128.304 49.6964 117.214 104.84 57.1529 
116.702 105.603 57.8106 117.896 105.626 56.5533 123.559 130.36 48.8352 
124.824 130.991 50.0022 114.449 132.211 49.5219 115.888 131.397 48.2312 
126.591 124.762 51.6181 125.504 123.644 50.6597 124.979 125.121 50.3421 
126.276 115.841 52.819 126.21 117.646 52.2914 126.629 117.046 53.4127 
122.151 122.483 50.0696 124.575 122.568 50.1508 123.559 121.01 50.1628 
119.429 113.401 54.3135 120.015 111.854 53.6172 121.41 104.894 58.5749 
120.645 103.983 58.2865 121.166 104.845 57.2894 122.384 115.152 51.8246 
120.759 115.933 52.5086 124.943 126.622 50.1106 120.731 123.281 50.4114 
124.676 112.667 53.4477 125.515 114.141 53.0919 125.969 113.209 54.5755 
119.287 124.027 50.7082 118.089 124.308 52.051 123.387 109.948 54.4159 
124.586 109.652 55.9456 114.417 100.358 61.632 113.831 101.604 60.3299 
113.735 103.012 60.0117 114.793 102.008 59.897 118.353 103.432 57.5359 
116.406 103.839 57.8749 119.712 103.242 58.7511 118.808 102.484 59.3038 
115.635 103.209 58.6726 117.015 102.11 58.8484 118.297 101.919 60.3568 
115.366 104.104 58.9484 115.218 102.476 59.2335 116.123 100.955 60.4194 
117.812 101.424 61.3438 113.949 101.423 64.068 112.999 100.984 63.6578 
114.461 100.841 63.8109 125.551 118.764 51.4712 124.659 119.593 50.7792 
126.26 120.006 51.6673 121.102 126.996 48.6752 121.475 118.87 51.3778 
122.459 119.718 50.7053 112.148 101.685 63.4244 119.456 127.088 48.7321 
120.778 128.476 48.142 121.598 110.499 53.4877 123.652 111.34 53.5955 
118.433 102.453 61.2901 119.531 110.394 54.1476 118.726 107.851 55.3175 
119.118 109.094 54.7029 119.05 130.352 47.5556 118.06 131.142 47.2922 
118.338 106.667 55.9865 119.842 105.463 55.9514 118.412 110.369 55.3989 
117.757 107.771 56.5578 120.12 129.686 47.7272 118.141 129.327 48.1542 
121.664 105.867 56.5605 119.913 103.504 59.7654 122.837 106.69 57.3956 
125.668 128.181 50.8572 113.544 133.421 51.1435 122.395 117.812 51.1543 
124.637 117.8 51.2046 123.548 116.409 51.2459 117.997 127.799 48.7648 
122.181 129.917 47.9728 119.182 134.225 46.5496 120.533 135.12 47.3233 
117.444 132.81 46.832 120.799 117.655 52.1252 126.321 121.863 51.1993 
126.883 120.944 52.4256 120.174 117.078 53.2565 124.683 115.066 51.9635 
116.179 135.605 49.1673 117.857 135.452 48.6517 118.351 125.613 52.6455 
118.79 127.254 52.7315 117.451 126.617 52.6804 122.654 109.431 57.1111 
120.626 109.272 57.5071 122.096 108.113 57.7477 115.199 134.724 50.5166 
120.504 133.335 50.0866 121.918 133.472 49.4232 120.814 134.491 48.7736 
122.612 113.91 55.7026 121.462 115.137 55.0456 120.767 114.021 55.153 
116.645 127.14 52.7132 115.93 131.53 51.8368 116.221 130.034 52.2823 
116.508 128.625 52.6155 117.032 102.202 62.9838 115.827 101.917 63.7363 
112.164 102.593 62.781 112.821 103.26 61.7042 117.689 129.738 52.264 
122.71 132.258 50.1885 123.258 126.107 52.7814 121.791 126.948 52.7505 
121.242 125.239 53.0058 120.94 120.632 53.3468 120.708 122.345 53.0621 
124.358 128.762 51.5504 123.673 130.035 51.1598 122.731 128.614 52.0357 
117.871 106.799 58.2762 117.168 106.081 58.6243 123.178 131.051 50.7944 
117.233 132.92 51.1165 115.609 133.113 51.2929 124.819 125.559 52.3945 
125.364 124.071 52.7787 126.08 118.07 53.9095 126.115 116.319 54.4111 
123.473 121.865 54.0252 124.421 123.268 53.4671 122.182 123.228 53.476 
120.088 112.56 55.636 121.044 106.016 58.8518 120.602 104.983 59.4231 
120.828 116.424 54.3303 122.361 116.109 55.1564 124.738 127.064 51.9945 
120.891 123.88 52.9522 125.329 114.789 55.0202 124.483 113.439 55.5304 
119.593 124.564 52.6919 123.184 110.897 56.5064 113.818 103.555 61.2868 
114.45 103.353 62.7896 114.742 103.696 60.9205 116.369 105.306 59.355 
118.252 105.656 59.8752 118.732 104.049 60.7704 119.668 104.526 60.069 
116.959 104.52 61.0003 115.577 104.525 59.8674 118.258 103.297 61.3716 
115.138 104.123 60.4957 117.775 102.782 62.0911 116.079 103.719 62.0554 
114.498 101.895 64.1181 113.066 102.058 63.95 126.149 120.391 53.382 
124.522 120.36 54.1459 125.41 119.373 54.0164 121.079 128.257 52.3215 
122.478 120.501 54.0681 121.542 119.473 53.9492 120.832 129.77 51.782 
119.929 128.405 52.3348 123.437 112.318 56.0665 121.504 111.698 56.4662 
119.586 111.178 56.1522 119.161 109.964 56.655 118.755 108.791 57.1826 
118.844 132.999 50.7249 119.613 131.944 51.126 119.755 107.232 58.6394 
118.345 107.675 57.7486 119.013 130.596 51.7494 120.425 131.007 51.3828 
121.498 106.968 58.303 123.44 117.42 55.0792 124.488 118.626 54.5441 
122.41 118.615 54.5079 118.967 129.1 52.2803 121.894 131.05 51.0977 
119.427 135.164 48.4358 118.373 134.388 49.808 120.87 118.076 53.8655 
126.192 122.255 53.0725 124.484 116.031 55.2353 
POLYGONS 624 2496
3 17 82 81 
3 82 16 80 
3 81 80 40 
3 80 81 82 
3 48 85 84 
3 85 22 83 
3 84 83 34 
3 83 84 85 
3 50 88 87 
3 88 7 86 
3 87 86 46 
3 86 87 88 
3 40 90 81 
3 90 18 89 
3 81 89 17 
3 89 81 90 
3 66 93 92 
3 93 68 91 
3 92 91 15 
3 91 92 93 
3 62 96 95 
3 96 54 94 
3 95 94 25 
3 94 95 96 
3 34 83 98 
3 83 22 97 
3 98 97 21 
3 97 98 83 
3 19 101 100 
3 101 56 99 
3 100 99 20 
3 99 100 101 
3 20 103 102 
3 103 34 98 
3 102 98 21 
3 98 102 103 
3 36 106 105 
3 106 3 104 
3 105 104 2 
3 104 105 106 
3 32 109 108 
3 109 0 107 
3 108 107 31 
3 107 108 109 
3 20 99 103 
3 99 56 110 
3 103 110 34 
3 110 103 99 
3 15 112 92 
3 112 14 111 
3 92 111 66 
3 111 92 112 
3 58 115 114 
3 115 52 113 
3 114 113 48 
3 113 114 115 
3 24 118 117 
3 118 23 116 
3 117 116 60 
3 116 117 118 
3 13 121 120 
3 121 58 119 
3 120 119 42 
3 119 120 121 
3 28 124 123 
3 124 44 122 
3 123 122 29 
3 122 123 124 
3 13 120 126 
3 120 42 125 
3 126 125 14 
3 125 126 120 
3 40 128 127 
3 128 56 101 
3 127 101 19 
3 101 127 128 
3 52 131 130 
3 131 12 129 
3 130 129 11 
3 129 130 131 
3 10 134 133 
3 134 9 132 
3 133 132 76 
3 132 133 134 
3 74 137 136 
3 137 60 135 
3 136 135 52 
3 135 136 137 
3 54 139 94 
3 139 26 138 
3 94 138 25 
3 138 94 139 
3 44 142 141 
3 142 6 140 
3 141 140 5 
3 140 141 142 
3 25 144 95 
3 144 72 143 
3 95 143 62 
3 143 95 144 
3 12 131 145 
3 131 52 115 
3 145 115 58 
3 115 145 131 
3 23 146 116 
3 146 52 135 
3 116 135 60 
3 135 116 146 
3 9 149 148 
3 149 8 147 
3 148 147 62 
3 147 148 149 
3 22 85 151 
3 85 48 150 
3 151 150 23 
3 150 151 85 
3 7 88 153 
3 88 50 152 
3 153 152 8 
3 152 153 88 
3 31 155 108 
3 155 36 154 
3 108 154 32 
3 154 108 155 
3 30 157 156 
3 157 36 155 
3 156 155 31 
3 155 156 157 
3 78 159 158 
3 159 29 122 
3 158 122 44 
3 122 158 159 
3 4 161 160 
3 161 78 158 
3 160 158 44 
3 158 160 161 
3 78 163 159 
3 163 38 162 
3 159 162 29 
3 162 159 163 
3 4 164 161 
3 164 38 163 
3 161 163 78 
3 163 161 164 
3 38 166 162 
3 166 30 165 
3 162 165 29 
3 165 162 166 
3 3 106 168 
3 106 36 167 
3 168 167 38 
3 167 168 106 
3 32 171 170 
3 171 2 169 
3 170 169 1 
3 169 170 171 
3 74 174 173 
3 174 10 172 
3 173 172 70 
3 172 173 174 
3 42 119 175 
3 119 58 114 
3 175 114 48 
3 114 175 119 
3 36 105 154 
3 105 2 171 
3 154 171 32 
3 171 154 105 
3 60 177 117 
3 177 70 176 
3 117 176 24 
3 176 117 177 
3 1 178 170 
3 178 0 109 
3 170 109 32 
3 109 170 178 
3 42 175 180 
3 175 48 179 
3 180 179 64 
3 179 180 175 
3 36 157 167 
3 157 30 166 
3 167 166 38 
3 166 167 157 
3 54 182 181 
3 182 8 152 
3 181 152 50 
3 152 181 182 
3 38 164 168 
3 164 4 183 
3 168 183 3 
3 183 168 164 
3 54 96 182 
3 96 62 147 
3 182 147 8 
3 147 182 96 
3 50 184 181 
3 184 26 139 
3 181 139 54 
3 139 181 184 
3 27 186 185 
3 186 50 87 
3 185 87 46 
3 87 185 186 
3 68 93 188 
3 93 66 187 
3 188 187 56 
3 187 188 93 
3 52 146 113 
3 146 23 150 
3 113 150 48 
3 150 113 146 
3 46 190 189 
3 190 44 124 
3 189 124 28 
3 124 189 190 
3 26 184 191 
3 184 50 186 
3 191 186 27 
3 186 191 184 
3 46 189 185 
3 189 28 192 
3 185 192 27 
3 192 185 189 
3 56 187 194 
3 187 66 193 
3 194 193 64 
3 193 194 187 
3 44 190 142 
3 190 46 195 
3 142 195 6 
3 195 142 190 
3 44 141 160 
3 141 5 196 
3 160 196 4 
3 196 160 141 
3 46 86 195 
3 86 7 197 
3 195 197 6 
3 197 195 86 
3 12 145 198 
3 145 58 121 
3 198 121 13 
3 121 198 145 
3 40 127 90 
3 127 19 199 
3 90 199 18 
3 199 90 127 
3 76 202 201 
3 202 72 200 
3 201 200 70 
3 200 201 202 
3 56 194 110 
3 194 64 203 
3 110 203 34 
3 203 110 194 
3 34 203 84 
3 203 64 179 
3 84 179 48 
3 179 84 203 
3 42 180 204 
3 180 64 193 
3 204 193 66 
3 193 204 180 
3 42 204 125 
3 204 66 111 
3 125 111 14 
3 111 125 204 
3 15 91 206 
3 91 68 205 
3 206 205 16 
3 205 206 91 
3 68 207 205 
3 207 40 80 
3 205 80 16 
3 80 205 207 
3 40 207 128 
3 207 68 188 
3 128 188 56 
3 188 128 207 
3 24 176 208 
3 176 70 200 
3 208 200 72 
3 200 208 176 
3 11 210 209 
3 210 10 174 
3 209 174 74 
3 174 209 210 
3 24 208 211 
3 208 72 144 
3 211 144 25 
3 144 211 208 
3 9 148 132 
3 148 62 212 
3 132 212 76 
3 212 132 148 
3 11 209 130 
3 209 74 136 
3 130 136 52 
3 136 130 209 
3 74 173 137 
3 173 70 177 
3 137 177 60 
3 177 137 173 
3 10 133 172 
3 133 76 201 
3 172 201 70 
3 201 172 133 
3 72 202 143 
3 202 76 212 
3 143 212 62 
3 212 143 202 
3 41 214 213 
3 214 16 82 
3 213 82 17 
3 82 213 214 
3 35 217 216 
3 217 22 215 
3 216 215 49 
3 215 216 217 
3 47 220 219 
3 220 7 218 
3 219 218 51 
3 218 219 220 
3 17 89 213 
3 89 18 221 
3 213 221 41 
3 221 213 89 
3 15 224 223 
3 224 69 222 
3 223 222 67 
3 222 223 224 
3 25 227 226 
3 227 55 225 
3 226 225 63 
3 225 226 227 
3 21 97 228 
3 97 22 217 
3 228 217 35 
3 217 228 97 
3 20 230 100 
3 230 57 229 
3 100 229 19 
3 229 100 230 
3 21 228 102 
3 228 35 231 
3 102 231 20 
3 231 102 228 
3 2 104 233 
3 104 3 232 
3 233 232 37 
3 232 233 104 
3 31 107 235 
3 107 0 234 
3 235 234 33 
3 234 235 107 
3 35 236 231 
3 236 57 230 
3 231 230 20 
3 230 231 236 
3 67 237 223 
3 237 14 112 
3 223 112 15 
3 112 223 237 
3 49 240 239 
3 240 53 238 
3 239 238 59 
3 238 239 240 
3 61 242 241 
3 242 23 118 
3 241 118 24 
3 118 241 242 
3 43 245 244 
3 245 59 243 
3 244 243 13 
3 243 244 245 
3 29 247 123 
3 247 45 246 
3 123 246 28 
3 246 123 247 
3 14 248 126 
3 248 43 244 
3 126 244 13 
3 244 126 248 
3 19 229 250 
3 229 57 249 
3 250 249 41 
3 249 250 229 
3 11 129 252 
3 129 12 251 
3 252 251 53 
3 251 252 129 
3 77 254 253 
3 254 9 134 
3 253 134 10 
3 134 253 254 
3 53 257 256 
3 257 61 255 
3 256 255 75 
3 255 256 257 
3 25 138 227 
3 138 26 258 
3 227 258 55 
3 258 227 138 
3 5 140 260 
3 140 6 259 
3 260 259 45 
3 259 260 140 
3 63 262 226 
3 262 73 261 
3 226 261 25 
3 261 226 262 
3 59 238 263 
3 238 53 251 
3 263 251 12 
3 251 263 238 
3 61 257 242 
3 257 53 264 
3 242 264 23 
3 264 242 257 
3 63 266 265 
3 266 8 149 
3 265 149 9 
3 149 265 266 
3 23 267 151 
3 267 49 215 
3 151 215 22 
3 215 151 267 
3 8 268 153 
3 268 51 218 
3 153 218 7 
3 218 153 268 
3 33 270 235 
3 270 37 269 
3 235 269 31 
3 269 235 270 
3 31 269 156 
3 269 37 271 
3 156 271 30 
3 271 156 269 
3 45 247 273 
3 247 29 272 
3 273 272 79 
3 272 273 247 
3 45 273 275 
3 273 79 274 
3 275 274 4 
3 274 275 273 
3 29 277 272 
3 277 39 276 
3 272 276 79 
3 276 272 277 
3 79 276 274 
3 276 39 278 
3 274 278 4 
3 278 274 276 
3 29 165 277 
3 165 30 279 
3 277 279 39 
3 279 277 165 
3 39 281 280 
3 281 37 232 
3 280 232 3 
3 232 280 281 
3 1 169 283 
3 169 2 282 
3 283 282 33 
3 282 283 169 
3 71 286 285 
3 286 10 284 
3 285 284 75 
3 284 285 286 
3 49 239 287 
3 239 59 245 
3 287 245 43 
3 245 287 239 
3 33 282 270 
3 282 2 233 
3 270 233 37 
3 233 270 282 
3 24 289 241 
3 289 71 288 
3 241 288 61 
3 288 241 289 
3 33 234 283 
3 234 0 178 
3 283 178 1 
3 178 283 234 
3 65 291 290 
3 291 49 287 
3 290 287 43 
3 287 290 291 
3 39 279 281 
3 279 30 271 
3 281 271 37 
3 271 281 279 
3 51 268 293 
3 268 8 292 
3 293 292 55 
3 292 293 268 
3 3 183 280 
3 183 4 278 
3 280 278 39 
3 278 280 183 
3 8 266 292 
3 266 63 225 
3 292 225 55 
3 225 292 266 
3 55 258 293 
3 258 26 294 
3 293 294 51 
3 294 293 258 
3 47 219 296 
3 219 51 295 
3 296 295 27 
3 295 296 219 
3 57 298 297 
3 298 67 222 
3 297 222 69 
3 222 297 298 
3 49 267 240 
3 267 23 264 
3 240 264 53 
3 264 240 267 
3 28 246 300 
3 246 45 299 
3 300 299 47 
3 299 300 246 
3 27 295 191 
3 295 51 294 
3 191 294 26 
3 294 191 295 
3 27 192 296 
3 192 28 300 
3 296 300 47 
3 300 296 192 
3 65 302 301 
3 302 67 298 
3 301 298 57 
3 298 301 302 
3 6 303 259 
3 303 47 299 
3 259 299 45 
3 299 259 303 
3 4 196 275 
3 196 5 260 
3 275 260 45 
3 260 275 196 
3 6 197 303 
3 197 7 220 
3 303 220 47 
3 220 303 197 
3 13 243 198 
3 243 59 263 
3 198 263 12 
3 263 198 243 
3 18 199 221 
3 199 19 250 
3 221 250 41 
3 250 221 199 
3 71 306 305 
3 306 73 304 
3 305 304 77 
3 304 305 306 
3 35 307 236 
3 307 65 301 
3 236 301 57 
3 301 236 307 
3 49 291 216 
3 291 65 307 
3 216 307 35 
3 307 216 291 
3 67 302 308 
3 302 65 290 
3 308 290 43 
3 290 308 302 
3 14 237 248 
3 237 67 308 
3 248 308 43 
3 308 248 237 
3 16 309 206 
3 309 69 224 
3 206 224 15 
3 224 206 309 
3 16 214 309 
3 214 41 310 
3 309 310 69 
3 310 309 214 
3 57 297 249 
3 297 69 310 
3 249 310 41 
3 310 249 297 
3 73 306 311 
3 306 71 289 
3 311 289 24 
3 289 311 306 
3 75 284 312 
3 284 10 210 
3 312 210 11 
3 210 312 284 
3 25 261 211 
3 261 73 311 
3 211 311 24 
3 311 211 261 
3 77 313 254 
3 313 63 265 
3 254 265 9 
3 265 254 313 
3 53 256 252 
3 256 75 312 
3 252 312 11 
3 312 252 256 
3 61 288 255 
3 288 71 285 
3 255 285 75 
3 285 255 288 
3 71 305 286 
3 305 77 253 
3 286 253 10 
3 253 286 305 
3 63 313 262 
3 313 77 304 
3 262 304 73 
3 304 262 313 

POINT_DATA 314
NORMALS normals float
-0.993313 0.0249269 0.11273 -0.356795 -0.224442 0.90682 0.324147 -0.291438 0.899996 
0.759658 -0.275192 0.589227 0.796381 -0.388073 0.463871 0.773729 -0.460682 0.434874 
0.865382 -0.374472 0.332995 0.897653 -0.346842 0.271881 0.920731 -0.325129 0.215742 
0.965133 -0.206439 0.160938 0.99709 -0.0292485 0.0704 0.979507 0.199859 0.0249475 
0.97782 0.204621 0.0447132 0.932065 0.359514 0.0447691 0.846632 0.530258 -0.0451803 
0.685404 0.675891 -0.270911 0.180491 0.860902 -0.475679 -0.279194 0.900312 -0.333899 
-0.839099 0.406859 0.361079 -0.846731 -0.0226847 0.531538 -0.847676 -0.170086 0.50251 
-0.595261 -0.645931 0.477951 -0.649364 -0.639678 0.411265 -0.873829 -0.44962 0.185109 
-0.998816 -0.026887 0.0405442 -0.993909 0.109516 -0.0123002 -0.952401 0.294533 -0.0786323 
-0.969613 0.227689 -0.0894932 -0.921934 0.32614 -0.208976 -0.803638 0.413132 -0.428354 
-0.730351 0.36634 -0.576526 -0.632184 0.324356 -0.703659 -0.278553 -0.960419 0.00173593 
-0.186921 0.802446 0.566692 -0.603926 -0.457374 -0.65275 0.0501369 0.14002 0.988879 
0.0872891 -0.942658 -0.322144 0.0688856 0.849097 0.523727 0.0570657 -0.812305 -0.580434 
0.0321712 0.796001 0.604439 -0.603774 -0.192622 -0.773533 0.229039 0.626315 0.745165 
0.374342 -0.224438 -0.89972 0.152886 0.390863 0.907663 0.0896257 -0.675867 -0.731554 
0.0334995 0.587634 0.808433 0.0246866 -0.497195 -0.867288 -0.0467299 0.486222 0.872585 
-0.248603 -0.482472 -0.839891 -0.0369215 0.125149 0.991451 0.0268489 -0.411746 -0.910903 
-0.0574367 0.40675 0.911732 0.107247 -0.171536 -0.979323 0.0627263 0.259031 0.96383 
-0.102806 -0.284476 -0.953155 -0.131267 0.376909 0.916901 -0.502515 -0.389742 -0.771738 
0.133125 0.362791 0.922313 0.395005 -0.165267 -0.903691 0.229634 0.313557 0.921385 
-0.370997 -0.258584 -0.891906 -0.330485 0.1506 0.931719 0.120457 -0.434925 -0.892373 
0.0306379 0.174466 0.984186 -0.131035 -0.336058 -0.932682 0.140321 0.319295 0.937209 
0.250511 -0.229668 -0.940477 0.212514 0.514818 0.830542 0.0318663 -0.1939 -0.980504 
0.224098 0.685664 0.692564 0.0176318 -0.230411 -0.972934 -0.0141096 0.225893 0.97405 
-0.4062 -0.212568 -0.888716 -0.378351 0.244854 0.892691 0.429654 -0.19154 -0.882445 
0.330245 0.203614 0.921672 0.474693 -0.228847 -0.84988 0.358422 0.246775 0.900353 
0.0155744 -0.712357 -0.701644 -0.0312245 0.720945 0.692288 -0.296174 0.117064 -0.947933 
-0.579233 0.0684182 -0.812286 -0.0395553 0.891786 -0.450725 -0.64511 -0.636969 -0.422023 
-0.422107 -0.527061 -0.737586 -0.552924 -0.657438 -0.511909 0.503991 -0.587382 -0.633226 
0.031765 -0.449568 -0.892681 0.48668 -0.528586 -0.695513 -0.648497 0.761193 -0.00609183 
-0.829802 -0.154327 -0.536295 0.393876 0.0906631 -0.914681 0.537404 0.0252947 -0.842946 
0.163371 -0.270954 -0.948627 -0.476729 -0.0764759 -0.875718 -0.409813 -0.278848 -0.868503 
0.0253784 -0.320894 -0.946775 -0.568502 -0.685264 0.455213 -0.747874 -0.554041 -0.365682 
-0.800627 -0.3248 -0.503489 -0.856513 -0.0817352 0.509612 -0.797648 -0.367198 -0.47846 
-0.81993 -0.287382 0.495102 -0.796915 -0.377804 -0.471371 0.550837 -0.29835 0.779465 
0.282495 -0.89597 0.342686 0.438134 -0.880093 0.182963 -0.905364 0.185497 -0.381978 
-0.503281 -0.6138 -0.608241 -0.738136 -0.671095 -0.0691807 -0.589138 -0.356616 -0.725081 
0.624376 -0.0161655 -0.780956 0.801421 0.582311 -0.136519 -0.122133 -0.434205 -0.892496 
0.059803 -0.30588 -0.95019 0.284394 -0.26817 -0.920437 -0.610899 -0.251818 -0.750593 
-0.619149 -0.290364 -0.729619 -0.976428 -0.191933 0.0987461 0.335447 -0.15506 -0.92921 
0.586168 -0.0378827 -0.809303 0.612488 -0.0270111 -0.790018 -0.430619 -0.247155 -0.868033 
-0.810477 0.458477 -0.36459 -0.481807 -0.274686 -0.832112 0.628241 -0.053081 -0.776206 
0.862691 0.50569 -0.00652773 -0.833822 -0.300368 -0.463162 -0.569351 -0.382918 -0.727471 
0.962363 0.271464 0.0127963 0.53394 0.028568 -0.845039 0.529314 -0.081262 -0.844526 
0.764789 -0.300862 -0.56972 0.740781 -0.095675 -0.664898 0.996045 0.0054751 0.0886844 
-0.192292 -0.146211 -0.970385 0.272271 -0.0505902 -0.96089 0.0284753 -0.213111 -0.976613 
-0.943822 0.321156 -0.0778389 -0.526678 -0.122506 -0.841191 0.873718 -0.351385 0.336372 
0.571564 -0.782527 -0.246914 0.560403 -0.689097 -0.459449 -0.202411 -0.372797 -0.905567 
-0.671896 -0.228748 -0.704436 0.62896 -0.102909 -0.770597 -0.386175 -0.367496 -0.846059 
0.498494 -0.491709 -0.713951 0.604585 -0.457586 -0.651991 0.926904 -0.317532 0.200056 
-0.482634 -0.592713 -0.644791 -0.671406 -0.662843 0.331441 0.478021 -0.497936 -0.723571 
0.933438 -0.279745 0.22458 0.0077998 -0.979508 -0.201253 -0.247097 -0.54463 -0.801449 
-0.525962 0.399494 -0.750845 -0.307811 -0.515661 -0.799591 0.0743082 -0.651033 -0.755403 
-0.426153 -0.370512 -0.825297 0.483448 -0.828985 -0.281181 0.454114 -0.829958 -0.323958 
-0.488463 -0.376843 -0.787016 -0.0394004 -0.792217 -0.608966 0.532884 -0.82626 -0.182562 
-0.840577 0.322054 -0.435559 -0.460942 -0.460974 -0.758311 0.0618689 -0.900487 -0.430459 
0.532529 -0.845828 -0.031445 -0.00449708 -0.270755 0.962638 -0.366076 -0.793773 0.485708 
0.0770341 -0.884269 0.46058 0.529268 -0.216455 -0.82038 0.25426 -0.310141 -0.916059 
0.699171 -0.265349 -0.66389 0.0660354 -0.331908 -0.940997 -0.483975 -0.202063 -0.851433 
-0.216069 -0.308935 -0.926214 -0.814242 -0.12029 0.567926 -0.146625 -0.403529 -0.903142 
0.0811634 -0.317901 -0.944643 -0.0193407 -0.387307 -0.921748 0.39205 -0.465004 -0.793769 
0.844977 -0.272494 0.460175 -0.49956 -0.174129 -0.848598 -0.520887 -0.254993 -0.81465 
-0.506727 -0.221911 -0.833057 -0.121503 -0.368531 -0.921641 -0.214802 -0.415858 -0.883698 
-0.528104 -0.258503 -0.808878 0.029684 -0.561538 -0.826918 -0.963942 0.253226 -0.0818095 
-0.967457 0.226839 -0.112121 -0.000561813 -0.302864 -0.953034 -0.292491 -0.312425 -0.903792 
0.534994 -0.638454 -0.553315 0.708334 -0.5041 0.494112 0.8535 -0.40766 0.324577 
0.973013 0.221298 0.065373 -0.843368 0.0729466 0.532362 -0.225541 -0.13724 -0.964519 
0.274569 -0.137385 -0.951702 0.0314647 -0.255773 -0.966225 -0.359258 -0.392321 -0.846769 
0.347188 -0.222419 -0.911038 0.059549 0.141868 -0.988093 0.474712 0.779372 -0.408934 
-0.305312 -0.202965 -0.930371 -0.676175 -0.101548 -0.729709 0.692267 -0.0461286 -0.720166 
0.996185 -0.0431687 0.0758353 -0.9987 0.0423262 0.0284061 0.305281 -0.411853 -0.858592 
0.219324 0.815784 0.535157 0.230188 0.841475 0.488808 -0.174922 -0.179975 0.967993 
0.0353467 0.11306 0.992959 -0.135661 -0.16855 0.976313 0.329696 0.274114 0.903417 
-0.0535842 0.449253 0.891796 0.353325 0.266013 0.896883 0.107938 0.600636 0.792203 
0.232567 0.598501 0.766622 0.367132 0.699741 0.612843 0.344549 0.790359 0.506575 
-0.0486731 0.30907 0.949793 -0.394148 0.247059 0.885217 -0.436664 0.441967 0.783575 
-0.119231 -0.13494 0.983654 0.0257861 0.305414 0.95187 -0.0191098 0.259845 0.965461 
-0.0647707 0.142282 0.987705 0.419962 0.489513 0.764205 0.29155 0.493669 0.819322 
-0.655828 0.662954 0.361083 -0.440374 0.897802 -0.00475933 0.100344 0.28878 0.952122 
0.364587 0.593273 0.717707 0.18732 0.207651 0.9601 0.0466752 0.25579 0.965605 
-0.0536357 0.0773393 0.995561 -0.550352 0.070513 0.83195 -0.499158 0.09733 0.861028 
0.391597 0.375775 0.839908 0.308914 0.442737 0.841758 0.15328 0.379671 0.912335 
-0.501934 0.667091 0.550501 -0.469555 0.799906 0.373722 0.321089 0.504005 0.801799 
0.17551 0.46027 0.870257 0.0678811 0.400914 0.913598 0.395875 0.284959 0.872973 
0.423366 0.366088 0.828698 0.628584 0.270151 0.729315 0.629647 0.101405 0.770235 
-0.0150268 0.21898 0.975614 0.184816 0.346181 0.919784 -0.174733 0.27294 0.94603 
-0.468616 0.439236 0.766466 0.458294 0.285861 0.841576 0.530384 0.16614 0.831319 
-0.616072 0.168329 0.769494 -0.215243 0.163503 0.962776 0.453154 0.277085 0.847275 
-0.272445 0.0584858 0.960392 0.456343 0.0597698 0.887794 0.345666 0.118278 0.930873 
-0.234849 -0.158695 0.95899 0.318975 0.245872 0.915315 -0.256943 0.964489 -0.0611602 
0.0279074 0.859895 0.509707 -0.351665 0.932791 0.0789462 -0.456007 0.810945 0.36664 
0.0121178 0.723284 0.690444 0.394005 0.399259 0.82786 0.446312 0.274814 0.851635 
-0.074024 0.692744 0.717374 -0.53943 0.795196 0.276911 0.496802 0.438798 0.748762 
-0.523563 0.821866 0.22454 0.495156 0.501296 0.709593 0.0343591 0.81189 0.582798 
0.12429 0.49216 0.861586 -0.287556 0.476277 0.830946 0.604967 0.0615307 0.79387 
0.17715 0.120902 0.976729 0.43503 0.189899 0.880163 0.0541298 0.320134 0.945825 
-0.204911 0.132565 0.969762 -0.43901 0.202604 0.875341 0.109117 0.348856 0.930802 
0.0977766 0.276318 0.956079 0.240989 0.22354 0.944433 -0.0781799 0.357939 0.930466 
-0.454965 0.456536 0.76458 -0.471878 0.479297 0.740004 -0.496886 0.509613 0.702424 
0.178507 0.515908 0.837839 0.163345 0.436975 0.884518 -0.0239834 0.537406 0.842983 
-0.522461 0.568004 0.63593 0.152078 0.335108 0.929825 0.155278 0.372415 0.914984 
0.398596 0.265677 0.877802 -0.0229498 0.25413 0.966898 0.191079 0.326942 0.925526 
-0.21716 0.314894 0.92395 0.136874 0.273473 0.952091 0.182464 0.428758 0.884801 
0.246487 0.857955 0.45073 0.207905 0.668928 0.713661 -0.616047 0.254877 0.745334 
0.590368 0.263625 0.762868 0.193686 0.128251 0.972645 
FIELD FieldData 3
MedialIndex 1 314 int
0 1 2 3 4 5 6 7 8 
9 10 11 12 13 14 15 16 17 
18 19 20 21 22 23 24 25 26 
27 28 29 30 31 32 32 33 33 
34 34 35 35 36 36 37 37 38 
38 39 39 40 40 41 41 42 42 
43 43 44 44 45 45 46 46 47 
47 48 48 49 49 50 50 51 51 
52 52 53 53 54 54 55 55 58 
57 56 61 60 59 64 63 62 66 
65 69 68 67 72 71 70 74 73 
77 76 75 79 78 82 81 80 85 
84 83 86 88 87 91 90 89 94 
93 92 97 96 95 100 99 98 102 
101 104 103 107 106 105 110 109 108 
113 112 111 115 114 118 117 116 120 
119 121 122 125 124 123 127 126 129 
128 131 130 133 132 135 134 137 136 
139 138 140 142 141 144 143 147 146 
145 150 149 148 151 153 152 154 156 
155 158 157 159 160 162 161 164 163 
166 165 167 168 170 169 171 172 173 
174 175 178 177 176 179 180 182 181 
183 184 186 185 187 188 57 58 59 
60 61 62 63 64 65 67 68 69 
70 71 72 73 75 77 78 80 81 
83 84 86 88 89 90 91 93 94 
95 96 97 98 100 102 103 104 105 
106 109 110 111 112 113 114 116 117 
119 120 121 122 124 125 127 129 130 
131 132 134 135 136 137 138 139 140 
141 143 144 145 146 148 149 150 151 
152 153 155 156 157 158 160 161 162 
163 164 165 166 169 170 171 176 177 
178 179 180 182 183 184 186 188 
Tangency 1 314 int
1 1 1 1 1 1 1 1 1 
1 1 1 1 1 1 1 1 1 
1 1 1 1 1 1 1 1 1 
1 1 1 1 1 2 2 2 2 
2 2 2 2 2 2 2 2 2 
2 2 2 2 2 2 2 2 2 
2 2 2 2 2 2 2 2 2 
2 2 2 2 2 2 2 2 2 
2 2 2 2 2 2 2 2 2 
2 1 2 2 2 2 2 2 1 
2 2 2 2 2 2 2 1 2 
2 1 2 1 2 1 2 2 1 
2 2 2 2 1 2 2 2 2 
2 1 2 2 2 2 1 2 2 
1 2 2 1 2 2 2 2 1 
2 2 2 1 2 1 2 2 2 
2 2 2 2 2 1 2 1 2 
1 2 2 1 2 2 2 2 2 
2 2 2 1 2 2 2 1 2 
2 2 2 2 2 2 2 1 2 
2 2 2 1 2 2 2 2 2 
2 2 1 1 2 2 2 1 1 
1 1 2 2 2 2 2 2 1 
2 2 2 1 1 2 2 2 2 
2 2 2 2 2 2 2 2 2 
2 2 2 2 2 2 2 2 2 
2 2 2 2 2 2 2 2 2 
2 2 2 2 2 2 2 2 2 
2 2 2 2 2 2 2 2 2 
2 2 2 2 2 2 2 2 2 
2 2 2 2 2 2 2 2 2 
2 2 2 2 2 2 2 2 2 
2 2 2 2 2 2 2 2 2 
2 2 2 2 2 2 2 2 2 
2 2 2 2 2 2 2 2 
Radius 1 314 float
1.03566 0.846333 0.737301 0.89849 1.18988 1.0541 1.20944 1.23148 1.33522 
1.22263 1.31853 1.26464 1.18011 1.14632 1.24913 1.27869 1.29141 1.03265 
1.06441 1.28386 1.26832 1.07087 1.22721 1.3209 1.32739 1.32846 1.24913 
1.23524 1.23289 1.19159 1.22332 1.2757 1.55132 1.55132 1.6292 1.6292 
1.62214 1.62214 1.61868 1.61868 1.61213 1.61213 1.72534 1.72534 1.58212 
1.58212 1.60798 1.60798 1.77185 1.77185 1.6046 1.6046 1.71304 1.71304 
1.64471 1.64471 1.81698 1.81698 1.69076 1.69076 1.72616 1.72616 1.6971 
1.6971 1.94386 1.94386 1.77211 1.77211 1.76345 1.76345 1.78476 1.78476 
1.72663 1.72663 1.72586 1.72586 1.73432 1.73432 1.71371 1.71371 1.27269 
1.03265 1.1514 1.25335 1.75273 1.2017 1.23799 1.60495 1.22511 1.04882 
1.06441 1.29244 1.26519 1.79646 1.24909 1.43634 1.60728 1.16251 1.07087 
1.27798 1.27971 1.28142 1.1694 1.25838 0.747331 0.709341 0.784853 1.15525 
1.25829 1.03566 1.76797 1.25692 1.26102 1.75142 1.93462 1.74641 1.26996 
1.21415 1.24247 1.72251 1.15491 1.13748 1.18499 1.21598 1.2461 1.24163 
1.19776 1.2863 1.80588 1.23 1.26601 1.19502 1.18815 1.16058 1.17417 
1.77745 1.76334 1.97843 1.25237 1.25571 1.13217 1.0541 1.20095 1.7833 
1.23592 1.1644 1.40651 1.26621 1.25234 1.25954 1.23687 1.21971 1.27558 
1.25043 1.62816 1.29256 1.22854 1.1651 1.61795 1.24177 1.16337 1.27331 
1.12298 1.62241 1.08965 1.20436 1.28418 1.61455 1.0085 0.804438 0.846333 
0.765937 1.49672 1.77873 1.17627 1.9325 1.48912 1.77362 0.943922 1.93775 
1.94087 1.6081 1.42161 1.0495 1.24267 1.22938 1.24101 1.97682 1.99397 
1.21961 1.6097 1.24184 1.22455 1.95693 1.96075 1.21758 1.1114 1.22796 
1.15085 1.17527 1.77581 1.77895 1.98298 1.95433 1.74007 1.31093 1.30176 
1.81019 1.17981 1.26309 1.21999 1.20795 1.78667 1.03265 1.27269 1.2017 
1.75273 1.25335 1.22511 1.60495 1.23799 1.06441 1.79646 1.26519 1.29244 
1.60728 1.43634 1.24909 1.07087 1.28142 1.27798 1.25838 0.784853 0.709341 
1.03566 1.25829 1.76797 1.25692 1.74641 1.93462 1.75142 1.21415 1.26996 
1.13748 1.15491 1.72251 1.2461 1.18499 1.24163 1.80588 1.2863 1.19502 
1.26601 1.16058 1.18815 1.97843 1.76334 1.77745 1.25571 1.20095 1.0541 
1.23592 1.7833 1.1644 1.40651 1.25234 1.26621 1.23687 1.27558 1.29256 
1.62816 1.1651 1.24177 1.61795 1.27331 1.16337 1.62241 1.12298 1.08965 
1.28418 1.0085 1.61455 0.765937 0.846333 1.17627 1.77873 1.49672 1.9325 
1.77362 1.48912 1.94087 1.93775 1.42161 1.6081 1.24267 1.24101 1.22938 
1.99397 1.97682 1.6097 1.21961 1.96075 1.95693 1.21758 1.98298 1.77895 
1.77581 1.95433 1.74007 1.31093 1.81019 1.17981 1.26309 1.78667 
