# vtk DataFile Version 4.0
vtk output
ASCII
DATASET POLYDATA
POINTS 314 float
110.009 103.474 64.6883 113.004 102.54 64.4747 115.818 102.126 63.2335 
118.761 102.167 60.7579 119.216 102.736 59.3946 122.616 102.809 57.5277 
124.398 104.439 56.0655 125.969 106.468 54.2274 127.193 109.433 53.1961 
129.096 112.263 52.2602 129.189 115.241 51.7559 130.672 117.88 51.7606 
130.682 121.437 51.7174 130.467 124.958 51.7129 128.984 127.762 51.1513 
126.656 130.878 48.4277 122.808 133.379 45.3112 117.986 135.585 44.0102 
114.64 134.878 46.8665 113.717 131.623 49.6028 112.525 128.367 50.8383 
113.035 125.312 51.3439 114.002 123.222 50.9995 115.441 120.18 50.8767 
115.606 116.706 52.3008 115.272 113.495 54.2477 114.59 110.642 55.7386 
114.281 108.605 56.5162 113.772 107.128 56.7864 111.47 105.891 57.4671 
109.941 105.115 59.3296 108.051 104.689 61.9631 111.971 101.334 62.1645 
113.058 104.945 63.0307 116.815 125.481 47.876 117.688 126.308 51.8987 
113.703 101.231 60.4015 114.75 105.02 61.5059 114.237 101.976 58.5755 
114.925 105.264 60.6897 117.941 130.893 45.5662 119.092 133.353 48.7464 
125.025 124.767 48.7317 124.016 125.61 52.9906 118.574 103.866 55.434 
119.256 106.273 58.5841 118.959 105.676 54.0589 119.838 107.654 57.7334 
119.8 122.598 48.0454 119.413 123.55 52.39 119.568 107.811 52.8189 
120.609 109.438 56.6975 123.388 120.364 48.9298 123 120.74 53.4048 
119.645 109.855 51.7808 120.649 111.664 55.6668 118.371 127.958 46.8363 
118.908 129.437 50.9766 125.495 122.561 49.0442 124.868 122.936 53.4647 
120.501 117.926 49.1493 120.59 118.739 53.5718 121.864 111.46 50.5259 
122.603 113.209 54.5704 121.376 125.726 47.4394 120.681 126.85 51.8452 
124.383 127.083 47.8133 123.571 128.855 51.6593 122.345 129.191 46.2097 
122.176 131.684 49.6474 122.013 115.749 49.3884 122.361 116.446 53.8971 
119.253 113.792 50.2515 120.198 115.115 54.4591 125.209 117.383 49.0825 
125.131 117.713 53.5721 124.479 113.816 49.4159 124.741 114.606 53.8249 
115.268 102.804 57.2643 115.721 105.917 59.6603 120.118 131.354 44.7889 
117.753 132.371 44.5923 120.42 134.516 44.3229 115.892 124.553 48.6468 
118.075 124.056 47.8115 116.848 123.072 48.5599 121.618 105.749 53.4475 
119.224 106.725 53.4159 122.139 107.145 52.6364 115.824 135.739 45.1409 
116.216 132.195 45.8806 124.362 129.348 46.7201 125.653 128.055 47.899 
123.328 128.137 47.0405 117.852 111.06 52.1141 118.771 111.879 51.3389 
120.731 110.712 51.1501 113.649 124.178 51.284 115.057 125.619 48.8434 
115.489 128.047 47.8408 113.069 130.093 50.3459 115.903 129.283 47.4631 
112.621 126.595 51.2688 115.119 126.618 48.3142 116.918 102.118 61.8043 
115.227 100.857 61.6584 116.077 100.898 60.2481 108.894 103.971 63.8189 
110.52 102.064 61.6721 110.918 101.799 63.2656 117.471 126.816 47.2996 
126.449 126.703 48.8103 128.019 129.296 50.0491 121.221 121.194 48.5038 
122.937 122.462 48.4779 124.401 121.469 48.9376 118.923 118.817 49.2084 
118.673 117.095 49.6947 115.645 118.473 51.4198 125.11 123.696 48.8569 
127.196 124.849 49.3975 127.486 123.528 49.4707 115.154 104.155 56.1186 
112.834 106.536 57.0188 116.315 104.822 55.28 126.858 125.689 49.2836 
129.802 126.538 51.6181 116.073 130.664 46.7884 117.994 129.41 46.3063 
130.849 119.824 51.7415 126.777 119.56 49.4651 126.632 120.801 49.4759 
126.214 112.96 49.9585 126.126 114.693 49.6986 129.224 114.143 51.8464 
121.566 119.221 48.9093 124.538 118.983 49.0152 122.783 117.77 48.9534 
114.936 112.03 55.0555 117.365 109.763 52.8296 123.81 103.386 56.7098 
120.567 102.984 55.8743 121.03 104.107 54.826 120.183 112.59 50.4149 
117.707 113.156 51.2838 127.215 122.028 49.5177 119.891 120.145 48.8024 
123.899 110.527 51.0153 125.161 111.53 50.4656 128.113 110.64 52.8627 
118.158 121.375 48.6681 114.757 121.767 50.7985 122.594 108.539 52.0963 
126.596 108.029 53.4967 112.738 101.191 61.1239 111.09 102.036 60.7394 
108.956 104.865 60.2319 111.828 102.108 59.951 116.543 103.25 56.4911 
113.996 103.563 56.9426 118.657 102.644 56.848 116.751 102.526 57.6725 
112.698 102.964 57.8864 114.617 102.41 57.927 116.345 102.09 58.3462 
110.548 105.35 58.4611 112.226 102.483 58.9175 114.042 101.491 59.475 
116.136 101.398 59.0689 114.374 102.263 64.0485 112.594 101.484 63.7382 
113.961 100.968 62.688 124.978 115.628 49.464 123.775 116.344 49.2161 
126.506 116.35 49.56 122.646 123.665 48.2376 119.241 115.887 49.8651 
121.045 116.668 49.3188 111.849 102.911 64.5976 120.697 124.267 47.6874 
123.069 125.053 47.9984 119.821 108.788 52.3059 122.362 109.525 51.5897 
119.173 102.485 60.0503 117.194 108.633 53.3981 116.804 106.816 54.2912 
117.049 107.722 53.8779 121.714 127.392 47.0224 120.676 128.424 46.391 
116.683 105.868 54.6929 118.935 104.737 54.6289 114.412 109.463 56.2308 
114.075 107.851 56.6499 122.846 126.419 47.554 120.261 126.838 47.0476 
121.239 104.87 54.289 120.462 102.688 58.5174 125.138 105.299 55.2652 
130.653 123.117 51.7016 114.193 133.262 48.3995 120.389 114.965 49.7113 
123.365 115.041 49.3682 121.769 113.769 49.6162 119.19 125.543 47.3011 
124.985 125.885 48.4499 122.467 130.438 45.5208 124.879 132.207 46.7684 
120.261 129.912 45.6095 117.916 114.687 50.5912 127.23 117.908 49.4767 
129.772 116.24 51.7553 115.488 115.044 53.3129 123.35 112.452 49.8568 
118.821 134.664 47.0393 120.655 133.767 47.5956 117.257 123.675 52.1342 
118.406 124.986 52.064 116.707 125.03 51.9869 122.989 108.523 56.1968 
120.308 108.446 57.2154 122.496 107.642 56.714 117.521 134.325 48.2987 
122.849 130.357 50.6755 124.993 129.881 50.9349 123.959 131.419 49.5594 
121.599 112.461 55.0665 119.877 113.426 55.0385 118.992 112.515 55.5948 
116.06 126.205 52.0419 117.072 130.552 50.9047 116.527 128.81 51.482 
116.192 127.453 51.8519 116.828 104.161 61.5316 116.071 104.079 62.5599 
111.848 104.792 63.9556 111.553 105.4 62.516 118.172 127.805 51.5531 
125.605 128.209 52.1516 123.794 121.845 53.415 122.11 123.111 53.0787 
120.66 122.016 52.9068 118.916 118.133 53.4624 118.916 119.699 53.0302 
127.053 123.748 53.3512 126.628 125.138 53.2339 124.335 124.188 53.2626 
116.924 106.903 58.4513 115.649 106.519 58.6538 126.07 126.584 52.9427 
118.977 131.443 50.1031 117.369 132.506 49.8902 126.312 120.868 53.4117 
126.491 119.561 53.403 126.072 115.093 53.5031 126.192 113.93 53.7452 
122.883 118.307 53.6876 124.377 119.136 53.5587 121.439 119.84 53.4174 
118.523 111.289 56.2621 121.751 105.942 57.9613 121.379 104.941 58.4699 
118.735 114.605 54.7685 121.155 114.08 54.621 126.86 122.172 53.4241 
119.662 121.005 52.854 125.354 112.959 54.0623 124.319 112.106 54.612 
118.161 122.121 52.2927 123.313 109.836 55.737 112.156 105.573 61.7294 
113.796 105.054 62.2301 112.849 105.471 61.1458 114.483 106.246 59.0556 
117.084 106.148 58.9971 117.279 105.227 59.952 119.385 105.087 59.3186 
115.099 105.469 60.2652 113.365 105.888 59.9104 116.896 104.858 60.3839 
113.133 105.629 60.5034 116.75 104.551 60.9878 114.96 105.011 61.0396 
114.751 104.069 63.5065 113.298 103.85 64.3164 126.355 116.729 53.4315 
123.907 116.971 53.7158 125.012 116.056 53.6168 121.657 124.616 52.7096 
121.305 117.464 53.7942 119.725 116.842 53.865 121.961 126.278 52.3239 
120.084 125.402 52.1437 123.007 111.298 55.2838 120.769 110.598 56.1487 
118.303 110.139 56.846 118.101 109.13 57.3605 117.691 108.077 57.8251 
120.67 130.726 50.359 121.255 129.162 51.2201 119.646 106.893 58.1497 
117.36 107.35 57.9567 120.013 127.937 51.4949 121.925 127.746 51.8538 
122.031 106.901 57.4407 122.501 114.823 54.2221 123.731 115.518 53.89 
121.053 115.908 54.1226 119.295 126.547 51.8098 123.912 127.247 52.4748 
122.442 132.697 48.3257 120.682 132.429 49.1579 118.703 115.999 54.1867 
126.955 118.015 53.3959 123.854 113.843 54.1401 
POLYGONS 624 2496
3 17 82 81 
3 82 16 80 
3 81 80 40 
3 80 81 82 
3 48 85 84 
3 85 22 83 
3 84 83 34 
3 83 84 85 
3 50 88 87 
3 88 7 86 
3 87 86 46 
3 86 87 88 
3 40 90 81 
3 90 18 89 
3 81 89 17 
3 89 81 90 
3 66 93 92 
3 93 68 91 
3 92 91 15 
3 91 92 93 
3 62 96 95 
3 96 54 94 
3 95 94 25 
3 94 95 96 
3 34 83 98 
3 83 22 97 
3 98 97 21 
3 97 98 83 
3 19 101 100 
3 101 56 99 
3 100 99 20 
3 99 100 101 
3 20 103 102 
3 103 34 98 
3 102 98 21 
3 98 102 103 
3 36 106 105 
3 106 3 104 
3 105 104 2 
3 104 105 106 
3 32 109 108 
3 109 0 107 
3 108 107 31 
3 107 108 109 
3 20 99 103 
3 99 56 110 
3 103 110 34 
3 110 103 99 
3 15 112 92 
3 112 14 111 
3 92 111 66 
3 111 92 112 
3 58 115 114 
3 115 52 113 
3 114 113 48 
3 113 114 115 
3 24 118 117 
3 118 23 116 
3 117 116 60 
3 116 117 118 
3 13 121 120 
3 121 58 119 
3 120 119 42 
3 119 120 121 
3 28 124 123 
3 124 44 122 
3 123 122 29 
3 122 123 124 
3 13 120 126 
3 120 42 125 
3 126 125 14 
3 125 126 120 
3 40 128 127 
3 128 56 101 
3 127 101 19 
3 101 127 128 
3 52 131 130 
3 131 12 129 
3 130 129 11 
3 129 130 131 
3 10 134 133 
3 134 9 132 
3 133 132 76 
3 132 133 134 
3 74 137 136 
3 137 60 135 
3 136 135 52 
3 135 136 137 
3 54 139 94 
3 139 26 138 
3 94 138 25 
3 138 94 139 
3 44 142 141 
3 142 6 140 
3 141 140 5 
3 140 141 142 
3 25 144 95 
3 144 72 143 
3 95 143 62 
3 143 95 144 
3 12 131 145 
3 131 52 115 
3 145 115 58 
3 115 145 131 
3 23 146 116 
3 146 52 135 
3 116 135 60 
3 135 116 146 
3 9 149 148 
3 149 8 147 
3 148 147 62 
3 147 148 149 
3 22 85 151 
3 85 48 150 
3 151 150 23 
3 150 151 85 
3 7 88 153 
3 88 50 152 
3 153 152 8 
3 152 153 88 
3 31 155 108 
3 155 36 154 
3 108 154 32 
3 154 108 155 
3 30 157 156 
3 157 36 155 
3 156 155 31 
3 155 156 157 
3 78 159 158 
3 159 29 122 
3 158 122 44 
3 122 158 159 
3 4 161 160 
3 161 78 158 
3 160 158 44 
3 158 160 161 
3 78 163 159 
3 163 38 162 
3 159 162 29 
3 162 159 163 
3 4 164 161 
3 164 38 163 
3 161 163 78 
3 163 161 164 
3 38 166 162 
3 166 30 165 
3 162 165 29 
3 165 162 166 
3 3 106 168 
3 106 36 167 
3 168 167 38 
3 167 168 106 
3 32 171 170 
3 171 2 169 
3 170 169 1 
3 169 170 171 
3 74 174 173 
3 174 10 172 
3 173 172 70 
3 172 173 174 
3 42 119 175 
3 119 58 114 
3 175 114 48 
3 114 175 119 
3 36 105 154 
3 105 2 171 
3 154 171 32 
3 171 154 105 
3 60 177 117 
3 177 70 176 
3 117 176 24 
3 176 117 177 
3 1 178 170 
3 178 0 109 
3 170 109 32 
3 109 170 178 
3 42 175 180 
3 175 48 179 
3 180 179 64 
3 179 180 175 
3 36 157 167 
3 157 30 166 
3 167 166 38 
3 166 167 157 
3 54 182 181 
3 182 8 152 
3 181 152 50 
3 152 181 182 
3 38 164 168 
3 164 4 183 
3 168 183 3 
3 183 168 164 
3 54 96 182 
3 96 62 147 
3 182 147 8 
3 147 182 96 
3 50 184 181 
3 184 26 139 
3 181 139 54 
3 139 181 184 
3 27 186 185 
3 186 50 87 
3 185 87 46 
3 87 185 186 
3 68 93 188 
3 93 66 187 
3 188 187 56 
3 187 188 93 
3 52 146 113 
3 146 23 150 
3 113 150 48 
3 150 113 146 
3 46 190 189 
3 190 44 124 
3 189 124 28 
3 124 189 190 
3 26 184 191 
3 184 50 186 
3 191 186 27 
3 186 191 184 
3 46 189 185 
3 189 28 192 
3 185 192 27 
3 192 185 189 
3 56 187 194 
3 187 66 193 
3 194 193 64 
3 193 194 187 
3 44 190 142 
3 190 46 195 
3 142 195 6 
3 195 142 190 
3 44 141 160 
3 141 5 196 
3 160 196 4 
3 196 160 141 
3 46 86 195 
3 86 7 197 
3 195 197 6 
3 197 195 86 
3 12 145 198 
3 145 58 121 
3 198 121 13 
3 121 198 145 
3 40 127 90 
3 127 19 199 
3 90 199 18 
3 199 90 127 
3 76 202 201 
3 202 72 200 
3 201 200 70 
3 200 201 202 
3 56 194 110 
3 194 64 203 
3 110 203 34 
3 203 110 194 
3 34 203 84 
3 203 64 179 
3 84 179 48 
3 179 84 203 
3 42 180 204 
3 180 64 193 
3 204 193 66 
3 193 204 180 
3 42 204 125 
3 204 66 111 
3 125 111 14 
3 111 125 204 
3 15 91 206 
3 91 68 205 
3 206 205 16 
3 205 206 91 
3 68 207 205 
3 207 40 80 
3 205 80 16 
3 80 205 207 
3 40 207 128 
3 207 68 188 
3 128 188 56 
3 188 128 207 
3 24 176 208 
3 176 70 200 
3 208 200 72 
3 200 208 176 
3 11 210 209 
3 210 10 174 
3 209 174 74 
3 174 209 210 
3 24 208 211 
3 208 72 144 
3 211 144 25 
3 144 211 208 
3 9 148 132 
3 148 62 212 
3 132 212 76 
3 212 132 148 
3 11 209 130 
3 209 74 136 
3 130 136 52 
3 136 130 209 
3 74 173 137 
3 173 70 177 
3 137 177 60 
3 177 137 173 
3 10 133 172 
3 133 76 201 
3 172 201 70 
3 201 172 133 
3 72 202 143 
3 202 76 212 
3 143 212 62 
3 212 143 202 
3 41 214 213 
3 214 16 82 
3 213 82 17 
3 82 213 214 
3 35 217 216 
3 217 22 215 
3 216 215 49 
3 215 216 217 
3 47 220 219 
3 220 7 218 
3 219 218 51 
3 218 219 220 
3 17 89 213 
3 89 18 221 
3 213 221 41 
3 221 213 89 
3 15 224 223 
3 224 69 222 
3 223 222 67 
3 222 223 224 
3 25 227 226 
3 227 55 225 
3 226 225 63 
3 225 226 227 
3 21 97 228 
3 97 22 217 
3 228 217 35 
3 217 228 97 
3 20 230 100 
3 230 57 229 
3 100 229 19 
3 229 100 230 
3 21 228 102 
3 228 35 231 
3 102 231 20 
3 231 102 228 
3 2 104 233 
3 104 3 232 
3 233 232 37 
3 232 233 104 
3 31 107 235 
3 107 0 234 
3 235 234 33 
3 234 235 107 
3 35 236 231 
3 236 57 230 
3 231 230 20 
3 230 231 236 
3 67 237 223 
3 237 14 112 
3 223 112 15 
3 112 223 237 
3 49 240 239 
3 240 53 238 
3 239 238 59 
3 238 239 240 
3 61 242 241 
3 242 23 118 
3 241 118 24 
3 118 241 242 
3 43 245 244 
3 245 59 243 
3 244 243 13 
3 243 244 245 
3 29 247 123 
3 247 45 246 
3 123 246 28 
3 246 123 247 
3 14 248 126 
3 248 43 244 
3 126 244 13 
3 244 126 248 
3 19 229 250 
3 229 57 249 
3 250 249 41 
3 249 250 229 
3 11 129 252 
3 129 12 251 
3 252 251 53 
3 251 252 129 
3 77 254 253 
3 254 9 134 
3 253 134 10 
3 134 253 254 
3 53 257 256 
3 257 61 255 
3 256 255 75 
3 255 256 257 
3 25 138 227 
3 138 26 258 
3 227 258 55 
3 258 227 138 
3 5 140 260 
3 140 6 259 
3 260 259 45 
3 259 260 140 
3 63 262 226 
3 262 73 261 
3 226 261 25 
3 261 226 262 
3 59 238 263 
3 238 53 251 
3 263 251 12 
3 251 263 238 
3 61 257 242 
3 257 53 264 
3 242 264 23 
3 264 242 257 
3 63 266 265 
3 266 8 149 
3 265 149 9 
3 149 265 266 
3 23 267 151 
3 267 49 215 
3 151 215 22 
3 215 151 267 
3 8 268 153 
3 268 51 218 
3 153 218 7 
3 218 153 268 
3 33 270 235 
3 270 37 269 
3 235 269 31 
3 269 235 270 
3 31 269 156 
3 269 37 271 
3 156 271 30 
3 271 156 269 
3 45 247 273 
3 247 29 272 
3 273 272 79 
3 272 273 247 
3 45 273 275 
3 273 79 274 
3 275 274 4 
3 274 275 273 
3 29 277 272 
3 277 39 276 
3 272 276 79 
3 276 272 277 
3 79 276 274 
3 276 39 278 
3 274 278 4 
3 278 274 276 
3 29 165 277 
3 165 30 279 
3 277 279 39 
3 279 277 165 
3 39 281 280 
3 281 37 232 
3 280 232 3 
3 232 280 281 
3 1 169 283 
3 169 2 282 
3 283 282 33 
3 282 283 169 
3 71 286 285 
3 286 10 284 
3 285 284 75 
3 284 285 286 
3 49 239 287 
3 239 59 245 
3 287 245 43 
3 245 287 239 
3 33 282 270 
3 282 2 233 
3 270 233 37 
3 233 270 282 
3 24 289 241 
3 289 71 288 
3 241 288 61 
3 288 241 289 
3 33 234 283 
3 234 0 178 
3 283 178 1 
3 178 283 234 
3 65 291 290 
3 291 49 287 
3 290 287 43 
3 287 290 291 
3 39 279 281 
3 279 30 271 
3 281 271 37 
3 271 281 279 
3 51 268 293 
3 268 8 292 
3 293 292 55 
3 292 293 268 
3 3 183 280 
3 183 4 278 
3 280 278 39 
3 278 280 183 
3 8 266 292 
3 266 63 225 
3 292 225 55 
3 225 292 266 
3 55 258 293 
3 258 26 294 
3 293 294 51 
3 294 293 258 
3 47 219 296 
3 219 51 295 
3 296 295 27 
3 295 296 219 
3 57 298 297 
3 298 67 222 
3 297 222 69 
3 222 297 298 
3 49 267 240 
3 267 23 264 
3 240 264 53 
3 264 240 267 
3 28 246 300 
3 246 45 299 
3 300 299 47 
3 299 300 246 
3 27 295 191 
3 295 51 294 
3 191 294 26 
3 294 191 295 
3 27 192 296 
3 192 28 300 
3 296 300 47 
3 300 296 192 
3 65 302 301 
3 302 67 298 
3 301 298 57 
3 298 301 302 
3 6 303 259 
3 303 47 299 
3 259 299 45 
3 299 259 303 
3 4 196 275 
3 196 5 260 
3 275 260 45 
3 260 275 196 
3 6 197 303 
3 197 7 220 
3 303 220 47 
3 220 303 197 
3 13 243 198 
3 243 59 263 
3 198 263 12 
3 263 198 243 
3 18 199 221 
3 199 19 250 
3 221 250 41 
3 250 221 199 
3 71 306 305 
3 306 73 304 
3 305 304 77 
3 304 305 306 
3 35 307 236 
3 307 65 301 
3 236 301 57 
3 301 236 307 
3 49 291 216 
3 291 65 307 
3 216 307 35 
3 307 216 291 
3 67 302 308 
3 302 65 290 
3 308 290 43 
3 290 308 302 
3 14 237 248 
3 237 67 308 
3 248 308 43 
3 308 248 237 
3 16 309 206 
3 309 69 224 
3 206 224 15 
3 224 206 309 
3 16 214 309 
3 214 41 310 
3 309 310 69 
3 310 309 214 
3 57 297 249 
3 297 69 310 
3 249 310 41 
3 310 249 297 
3 73 306 311 
3 306 71 289 
3 311 289 24 
3 289 311 306 
3 75 284 312 
3 284 10 210 
3 312 210 11 
3 210 312 284 
3 25 261 211 
3 261 73 311 
3 211 311 24 
3 311 211 261 
3 77 313 254 
3 313 63 265 
3 254 265 9 
3 265 254 313 
3 53 256 252 
3 256 75 312 
3 252 312 11 
3 312 252 256 
3 61 288 255 
3 288 71 285 
3 255 285 75 
3 285 255 288 
3 71 305 286 
3 305 77 253 
3 286 253 10 
3 253 286 305 
3 63 313 262 
3 313 77 304 
3 262 304 73 
3 304 262 313 

POINT_DATA 314
NORMALS normals float
-0.295066 -0.126638 0.947047 0.136869 -0.273358 0.952125 0.592972 -0.350415 0.724979 
0.74979 -0.416248 0.514347 0.519894 -0.619889 0.587749 0.413187 -0.784622 0.462218 
0.88752 -0.455925 0.0666369 0.889827 -0.456249 -0.00669266 0.880334 -0.470745 0.0584014 
0.922461 -0.372984 0.0997429 0.974378 -0.222327 0.034047 0.990394 -0.117896 0.0722544 
0.992907 -0.080293 0.0876846 0.962704 0.247818 0.108567 0.869913 0.492036 0.033955 
0.799054 0.557514 -0.225146 0.574423 0.602452 -0.554157 0.0657697 0.713662 -0.697396 
-0.844541 0.535257 -0.0158559 -0.917068 0.358176 0.175205 -0.948256 0.218702 0.230172 
-0.866605 -0.366277 0.338875 -0.865874 -0.447637 0.223346 -0.962395 -0.269492 0.0341972 
-0.983132 0.162902 0.083152 -0.960935 0.15495 0.229335 -0.942963 0.273005 0.190498 
-0.944652 0.291778 0.149996 -0.804791 0.572619 -0.156264 -0.602788 0.579049 -0.548952 
-0.781237 0.426312 -0.45599 -0.948498 0.308658 -0.0712889 -0.288177 -0.956635 0.0424573 
0.253471 0.843158 0.474171 -0.35537 -0.258608 -0.898239 0.0542213 0.129765 0.990061 
-0.222957 -0.930413 -0.290897 0.289622 0.924024 0.249596 -0.164111 -0.809189 -0.564164 
0.18242 0.84634 0.500431 -0.323568 -0.487604 -0.810892 0.222569 0.679954 0.69866 
0.309422 -0.157957 -0.937714 -0.141492 0.218796 0.965458 -0.165494 -0.672033 -0.721792 
0.172069 0.519222 0.837138 -0.2206 -0.491596 -0.842418 0.191609 0.435408 0.879606 
-0.00824051 -0.27024 -0.962758 -0.180473 0.153358 0.971551 -0.240728 -0.38226 -0.892148 
0.240088 0.368658 0.898025 0.111713 -0.0737893 -0.990997 -0.0600847 0.0930555 0.993846 
-0.264571 -0.397694 -0.878545 0.191262 0.423367 0.885539 -0.184614 -0.31267 -0.931748 
0.0571913 0.353922 0.933525 0.229988 -0.0976227 -0.968285 -0.0490156 0.0690771 0.996406 
-0.130638 -0.167458 -0.977185 -0.09125 0.191764 0.97719 -0.136384 -0.472721 -0.870594 
0.19299 0.306936 0.931958 0.145516 -0.233005 -0.961527 -0.156681 0.256052 0.953881 
0.295042 -0.33253 -0.895753 -0.0783072 0.482197 0.872556 0.165293 -0.478861 -0.862189 
0.0868481 0.676635 0.731179 -0.0782975 -0.150706 -0.985473 0.0740336 0.154014 0.985291 
-0.319633 -0.276647 -0.906257 0.0968328 0.306438 0.946953 0.12087 -0.109745 -0.986583 
0.0861464 0.0357804 0.99564 0.0583956 -0.173758 -0.983055 0.174634 0.176212 0.968738 
-0.126289 -0.77304 -0.62166 0.102704 0.80092 0.589897 0.0828982 -0.267533 -0.959976 
-0.269634 -0.249625 -0.930046 0.436641 0.599731 -0.670573 -0.586323 -0.316005 -0.745899 
-0.207176 -0.275316 -0.938765 -0.463345 -0.357224 -0.810988 0.0919553 -0.615819 -0.782503 
-0.252993 -0.415983 -0.873472 0.0938806 -0.464634 -0.880512 -0.517676 0.743408 -0.423503 
-0.69717 -0.298205 -0.651941 0.494925 -0.219841 -0.840666 0.560514 -0.200413 -0.803529 
0.229033 -0.441344 -0.867617 -0.57991 -0.163466 -0.798112 -0.493792 -0.391699 -0.776364 
-0.200643 -0.408242 -0.890551 -0.821056 -0.481492 0.306646 -0.666565 -0.319998 -0.67327 
-0.578415 -0.0512698 -0.81413 -0.907662 0.382347 0.173089 -0.626252 -0.200178 -0.753484 
-0.953198 -0.0321477 0.300634 -0.626834 -0.175126 -0.759216 0.654454 -0.380996 0.653094 
0.18108 -0.967386 0.177128 0.215257 -0.974109 -0.0691153 -0.846661 0.138085 0.513904 
-0.639165 -0.759365 -0.121792 -0.474139 -0.794135 0.380187 -0.245613 -0.200957 -0.948309 
0.59474 -0.159037 -0.78803 0.858 0.50965 -0.063975 0.0590942 -0.249653 -0.966531 
0.176215 -0.151852 -0.972568 0.189322 -0.144566 -0.971215 -0.372107 -0.124723 -0.919772 
-0.448605 -0.283072 -0.847717 -0.999538 0.00329868 0.0302065 0.247404 -0.0763822 -0.965897 
0.477733 0.0627839 -0.876259 0.465675 -0.00982813 -0.884901 -0.367848 -0.329578 -0.869521 
-0.518167 0.720385 -0.46103 -0.429994 -0.295497 -0.853104 0.551229 -0.050419 -0.832829 
0.887792 0.451502 0.0892829 -0.681428 -0.301086 -0.667085 -0.291783 -0.427992 -0.855386 
0.996558 0.032075 0.0764352 0.385484 0.0811309 -0.919141 0.373239 -0.0732278 -0.924841 
0.396596 -0.344446 -0.850922 0.411516 0.0607489 -0.909376 0.999948 0.00429149 0.00928302 
-0.0248648 -0.0767439 -0.996741 0.109795 0.0247916 -0.993645 -0.0207256 -0.111682 -0.993528 
-0.925028 0.34513 0.158775 -0.610519 -0.262057 -0.74739 0.821769 -0.55113 0.144744 
0.0589069 -0.904414 -0.422569 0.139972 -0.657241 -0.740569 -0.267104 -0.391954 -0.880357 
-0.630276 -0.39073 -0.670881 0.430372 -0.136411 -0.892285 -0.18534 -0.244129 -0.951866 
0.162169 -0.620408 -0.76733 0.253884 -0.588387 -0.767687 0.796848 -0.578604 0.173928 
-0.333448 -0.406927 -0.850425 -0.869543 -0.473981 0.138701 0.122764 -0.393141 -0.911246 
0.927091 -0.369192 -0.0648136 -0.24219 -0.954534 -0.17381 -0.556312 -0.692729 -0.458959 
-0.745692 0.395326 -0.536339 -0.530508 -0.669237 -0.520271 -0.146229 -0.737074 -0.659802 
-0.34875 -0.498946 -0.793364 -0.00502826 -0.963266 -0.268501 0.0654092 -0.934621 -0.349579 
-0.471651 -0.529356 -0.705215 -0.121649 -0.785454 -0.606847 0.228735 -0.832254 -0.505008 
-0.812518 0.438942 -0.383593 -0.565101 -0.647978 -0.510671 -0.225356 -0.881832 -0.414231 
0.235555 -0.858279 -0.455929 0.397072 -0.327481 0.857374 -0.0977581 -0.809417 0.57904 
0.0760044 -0.939487 0.334047 0.24933 -0.160395 -0.955043 0.0258112 -0.217838 -0.975644 
0.362488 -0.372403 -0.854352 0.217507 -0.203379 -0.954635 -0.383166 -0.153806 -0.910784 
-0.128294 -0.210551 -0.969128 -0.110837 -0.196725 0.974174 0.100835 -0.258296 -0.960789 
0.262128 -0.252288 -0.931472 -0.226589 -0.438383 -0.869757 0.0684599 -0.524263 -0.8488 
0.947647 -0.284045 0.145887 -0.59204 -0.27573 -0.757273 -0.556621 -0.227503 -0.799009 
-0.583954 -0.239822 -0.775554 0.115747 -0.359338 -0.926002 0.00810225 -0.481648 -0.876328 
-0.509102 -0.270399 -0.817128 -0.176256 -0.54247 -0.821377 -0.951318 0.23699 0.197053 
-0.943378 0.319856 0.0879222 0.22921 -0.255304 -0.939299 0.0350766 -0.207066 -0.977698 
0.131046 -0.654657 -0.744481 0.317547 -0.761675 0.564814 0.853041 -0.513675 0.0919742 
0.9949 -0.00216425 0.10084 -0.91957 0.347657 0.183101 -0.20841 -0.134209 -0.968789 
-0.0103848 -0.0453033 -0.998919 -0.149459 -0.224667 -0.962905 -0.0723902 -0.224086 -0.971877 
0.342754 -0.260761 -0.902509 0.327607 -0.21982 -0.918887 0.702339 0.589469 -0.399057 
-0.0503969 -0.47888 -0.876432 -0.577417 -0.126108 -0.806651 0.441267 -0.0585234 -0.895465 
0.882019 -0.46484 0.0772405 -0.966963 0.184567 0.175835 -0.0406968 -0.397708 -0.916609 
0.270955 0.911574 0.309218 0.336085 0.869331 0.362368 -0.259931 -0.0578569 0.963892 
-0.0570514 0.146238 0.987603 -0.164017 -0.0687051 0.984062 0.504632 0.20119 0.839565 
0.249843 0.38262 0.889483 0.517807 0.301881 0.800465 -0.0232582 0.802098 0.596739 
0.00795433 0.584063 0.81167 0.237579 0.692623 0.68105 0.298783 0.787069 0.539677 
0.195803 0.391181 0.899243 0.0206289 0.327841 0.944508 -0.0398205 0.525588 0.849806 
-0.145123 -0.015538 0.989292 -0.0615723 0.412714 0.908777 -0.0770518 0.317625 0.945081 
-0.102976 0.232285 0.967181 0.578037 0.602148 0.550719 0.57879 0.550361 0.601752 
-0.0127432 0.691193 0.722558 -0.111302 0.944432 0.309288 0.0702821 0.244332 0.967141 
0.192223 0.559664 0.806118 -0.0773357 0.0206594 0.996791 -0.174101 0.123305 0.976977 
-0.188241 0.113185 0.975579 -0.33469 0.203705 0.920047 -0.375448 0.290746 0.88006 
0.259577 0.0948367 0.961055 0.206219 0.200829 0.957675 -0.0957399 0.141485 0.9853 
-0.134483 0.714842 0.686233 -0.112611 0.891118 0.439576 0.17595 0.375956 0.90978 
0.151779 0.489928 0.858448 -0.0627883 0.578194 0.81348 0.218661 -0.041009 0.974939 
0.248707 0.0816077 0.965135 0.385996 0.249939 0.887996 0.386173 0.108024 0.916079 
0.0210229 0.113978 0.993261 0.0391096 0.0915321 0.995034 -0.0803943 0.194326 0.977637 
-0.0599949 0.463272 0.884183 0.500208 0.259267 0.82618 0.46669 0.0782275 0.880955 
-0.153305 0.281834 0.947136 0.156798 0.257406 0.953497 0.261691 -0.0676855 0.962776 
-0.29272 0.158318 0.943001 0.345562 0.0876928 0.93429 0.359744 0.122408 0.924987 
-0.331878 -0.037702 0.942569 0.470482 0.234481 0.850685 -0.0468919 0.998795 0.0144895 
0.264633 0.896158 0.356188 -0.0244685 0.997116 0.0718385 -0.0878828 0.93713 0.337734 
0.133624 0.760725 0.635171 0.337072 0.455825 0.823776 0.34422 0.207423 0.91569 
0.126699 0.791267 0.598201 -0.136173 0.94026 0.312039 0.520425 0.632678 0.573477 
-0.104308 0.949808 0.294933 0.537202 0.689438 0.48589 0.238291 0.895516 0.375857 
0.449311 0.527199 0.721236 0.2633 0.404712 0.875718 0.292425 -0.197293 0.935715 
0.0836506 0.0566654 0.994883 0.264997 0.0372595 0.963529 -0.205335 0.203189 0.957367 
-0.0143729 0.137794 0.990357 -0.158723 0.289331 0.943978 -0.216393 0.276859 0.936228 
-0.163073 0.230774 0.959245 0.370288 0.304341 0.877646 0.209018 0.393003 0.895466 
-0.0608295 0.445302 0.893312 -0.0789379 0.43623 0.896366 -0.126723 0.383852 0.914658 
0.00560481 0.521893 0.852992 -0.0847761 0.413354 0.906615 0.163127 0.486025 0.858586 
-0.162005 0.489404 0.856877 -0.0730142 0.271632 0.959627 -0.171324 0.322119 0.931068 
0.516625 0.333372 0.788646 0.156642 0.216044 0.963737 0.149592 0.162801 0.975253 
0.0815239 0.277527 0.957253 -0.0273025 0.210171 0.977283 -0.143847 0.357005 0.92296 
0.316018 0.853766 0.413783 0.140356 0.663945 0.734491 -0.21444 0.479038 0.851198 
0.312032 -0.00788392 0.950039 0.18019 0.212008 0.960512 
FIELD FieldData 3
MedialIndex 1 314 int
0 1 2 3 4 5 6 7 8 
9 10 11 12 13 14 15 16 17 
18 19 20 21 22 23 24 25 26 
27 28 29 30 31 32 32 33 33 
34 34 35 35 36 36 37 37 38 
38 39 39 40 40 41 41 42 42 
43 43 44 44 45 45 46 46 47 
47 48 48 49 49 50 50 51 51 
52 52 53 53 54 54 55 55 58 
57 56 61 60 59 64 63 62 66 
65 69 68 67 72 71 70 74 73 
77 76 75 79 78 82 81 80 85 
84 83 86 88 87 91 90 89 94 
93 92 97 96 95 100 99 98 102 
101 104 103 107 106 105 110 109 108 
113 112 111 115 114 118 117 116 120 
119 121 122 125 124 123 127 126 129 
128 131 130 133 132 135 134 137 136 
139 138 140 142 141 144 143 147 146 
145 150 149 148 151 153 152 154 156 
155 158 157 159 160 162 161 164 163 
166 165 167 168 170 169 171 172 173 
174 175 178 177 176 179 180 182 181 
183 184 186 185 187 188 57 58 59 
60 61 62 63 64 65 67 68 69 
70 71 72 73 75 77 78 80 81 
83 84 86 88 89 90 91 93 94 
95 96 97 98 100 102 103 104 105 
106 109 110 111 112 113 114 116 117 
119 120 121 122 124 125 127 129 130 
131 132 134 135 136 137 138 139 140 
141 143 144 145 146 148 149 150 151 
152 153 155 156 157 158 160 161 162 
163 164 165 166 169 170 171 176 177 
178 179 180 182 183 184 186 188 
Tangency 1 314 int
1 1 1 1 1 1 1 1 1 
1 1 1 1 1 1 1 1 1 
1 1 1 1 1 1 1 1 1 
1 1 1 1 1 2 2 2 2 
2 2 2 2 2 2 2 2 2 
2 2 2 2 2 2 2 2 2 
2 2 2 2 2 2 2 2 2 
2 2 2 2 2 2 2 2 2 
2 2 2 2 2 2 2 2 2 
2 1 2 2 2 2 2 2 1 
2 2 2 2 2 2 2 1 2 
2 1 2 1 2 1 2 2 1 
2 2 2 2 1 2 2 2 2 
2 1 2 2 2 2 1 2 2 
1 2 2 1 2 2 2 2 1 
2 2 2 1 2 1 2 2 2 
2 2 2 2 2 1 2 1 2 
1 2 2 1 2 2 2 2 2 
2 2 2 1 2 2 2 1 2 
2 2 2 2 2 2 2 1 2 
2 2 2 1 2 2 2 2 2 
2 2 1 1 2 2 2 1 1 
1 1 2 2 2 2 2 2 1 
2 2 2 1 1 2 2 2 2 
2 2 2 2 2 2 2 2 2 
2 2 2 2 2 2 2 2 2 
2 2 2 2 2 2 2 2 2 
2 2 2 2 2 2 2 2 2 
2 2 2 2 2 2 2 2 2 
2 2 2 2 2 2 2 2 2 
2 2 2 2 2 2 2 2 2 
2 2 2 2 2 2 2 2 2 
2 2 2 2 2 2 2 2 2 
2 2 2 2 2 2 2 2 2 
2 2 2 2 2 2 2 2 
Radius 1 314 float
2.01535 1.94895 2.1187 2.0534 1.96637 1.99119 2.0285 2.06669 2.11412 
2.12811 2.15039 2.10662 2.08854 2.09704 2.09788 2.05087 2.11369 1.97453 
1.93651 2.08261 2.05955 1.92383 1.97234 2.10067 2.1527 2.14 2.0963 
2.07255 2.00485 1.92331 1.9932 2.02416 2.00643 2.00643 2.13034 2.13034 
2.04318 2.04318 1.98587 1.98587 2.10671 2.10671 2.23781 2.23781 2.02066 
2.02066 2.1338 2.1338 2.24604 2.24604 2.16664 2.16664 2.25455 2.25455 
2.20285 2.20285 2.21969 2.21969 2.24998 2.24998 2.2629 2.2629 2.24373 
2.24373 2.30017 2.30017 2.17496 2.17496 2.15753 2.15753 2.28777 2.28777 
2.27043 2.27043 2.26491 2.26491 2.25893 2.25893 1.97755 1.97755 2.12247 
1.97453 2.04835 1.93078 2.20754 2.01381 2.06349 2.15517 2.06987 1.95538 
1.93651 2.05694 2.04494 2.16462 2.11222 2.14986 2.18821 1.92733 1.92383 
2.06981 2.07013 2.07044 1.98796 2.04919 2.09603 2.12316 2.0706 1.98443 
1.95757 2.01535 2.22063 2.09596 2.07067 2.26714 2.35992 2.2751 2.1234 
2.13128 2.12734 2.25792 2.09191 2.10217 1.93663 1.99938 2.06017 2.09976 
2.09578 2.095 2.2154 2.08076 2.08992 2.07168 2.143 2.11673 2.1299 
2.28334 2.28467 2.38283 2.10801 2.1038 1.99642 1.99119 2.00111 2.29356 
2.1537 2.10579 2.13819 2.12535 2.11324 2.11933 2.02152 2.01768 2.06633 
2.06809 2.08714 2.091 2.05435 2.01792 1.93517 1.86808 2.08635 1.94265 
1.98969 1.94028 1.8894 1.979 1.96859 1.98029 2.03742 2.03908 1.94895 
2.11406 2.16452 2.2835 2.16277 2.33887 2.15655 2.28396 1.9855 2.32096 
2.31594 2.17696 2.13971 1.96308 2.08885 2.06214 2.08296 2.29054 2.29454 
1.94968 2.0958 2.08591 2.00599 2.29892 2.29559 2.05573 2.03905 2.05962 
2.10398 2.01668 2.29036 2.29049 2.39059 2.31316 2.20489 2.10467 2.08073 
2.20271 2.16872 2.12367 2.14295 2.16117 2.28186 1.97453 2.12247 2.01381 
2.20754 1.93078 2.06987 2.15517 2.06349 1.93651 2.16462 2.04494 2.05694 
2.18821 2.14986 2.11222 1.92383 2.07044 2.06981 2.04919 2.0706 2.12316 
2.01535 1.95757 2.22063 2.09596 2.2751 2.35992 2.26714 2.13128 2.1234 
2.10217 2.09191 2.25792 2.06017 1.93663 2.09976 2.2154 2.095 2.07168 
2.08992 2.11673 2.143 2.38283 2.28467 2.28334 2.1038 2.00111 1.99119 
2.1537 2.29356 2.10579 2.13819 2.11324 2.12535 2.02152 2.06633 2.091 
2.08714 2.01792 1.86808 1.93517 1.94265 2.08635 1.94028 1.98969 1.8894 
1.96859 2.03742 1.98029 2.11406 1.94895 2.16277 2.2835 2.16452 2.33887 
2.28396 2.15655 2.31594 2.32096 2.13971 2.17696 2.08885 2.08296 2.06214 
2.29454 2.29054 2.0958 1.94968 2.29559 2.29892 2.05573 2.39059 2.29049 
2.29036 2.31316 2.20489 2.10467 2.20271 2.16872 2.12367 2.28186 
